
                           ***********************       
                           *  WELCOME TO SIESTA  *       
                           ***********************       

reinit: Reading from standard input
reinit: Dumped input in INPUT_TMP.09395
************************** Dump of input data file ****************************
SystemName       bcc Fe ferro GGA   # Descriptive name of the system
SystemLabel            Fe           # Short name for naming files
# Species and atoms
NumberOfSpecies        1
NumberOfAtoms          2
%block ChemicalSpeciesLabel
  1  26  Fe
%endblock ChemicalSpeciesLabel
# Basis
PAO.BasisSize         DZP
# Lattice and geometry
LatticeConstant       2.87 Ang
%block LatticeVectors
 1.00000   0.000000  0.000000
 0.00000   1.000000  0.000000
 0.0000    0.000000  1.000000
%endblock LatticeVectors
# Atomic coordinates
AtomicCoordinatesFormat     ScaledCartesian
%block AtomicCoordinatesAndAtomicSpecies
  0.000000000000    0.000000000000    0.000000000000  1
  0.500000000000    0.500000000000    0.500000000000  1
%endblock AtomicCoordinatesAndAtomicSpecies
KgridCutoff          15. Ang
# SCF options
DM.MixingWeight       0.1           # New DM amount for next SCF cycle
DM.Tolerance          1.d-3         # Tolerance in maximum difference
DM.NumberPulay         3
SolutionMethod        diagon        # OrderN or Diagon
ElectronicTemperature  25 meV       # Temp. for Fermi smearing
xc.functional         GGA           # Exchange-correlation functional
xc.authors            PBE           # Exchange-correlation version
SpinPolarized         true          # Logical parameters are: yes or no
MeshCutoff           2000. Ry        # Mesh cutoff. real space mesh
# Output options
CDF.Save              true
WriteDMHS.NetCDF      true
SaveHS                true
************************** End of input data file *****************************

reinit: -----------------------------------------------------------------------
reinit: System Name: bcc Fe ferro GGA
reinit: -----------------------------------------------------------------------
reinit: System Label: Fe
reinit: -----------------------------------------------------------------------
Siesta Version: siesta-4.1--719
Architecture  : x86_64-unknown-linux-gnu--Gfortran
Compiler flags: mpif90 -g -O2
PP flags      : -DMPI -DFC_HAVE_FLUSH -DFC_HAVE_ABORT -DCDF -DGRID_DP -DPHI_GRID_SP -DNCDF -DNCDF_4
Libraries     : -lnetcdff -lnetcdf -lpthread -lscalapack -lblacsF77init-openmpi -lblacsCinit-openmpi -lblacs-openmpi /usr/lib/lapack/liblapack.a -lblas
PARALLEL version
NetCDF support
NetCDF-4 support

* Running on 4 nodes in parallel
>> Start of run:   8-AUG-2017  10:57:54

initatom: Reading input for the pseudopotentials and atomic orbitals ----------
Species number:   1 Atomic number:   26 Label: Fe

Ground state valence configuration:   4s02  3d06
Reading pseudopotential information in formatted form from Fe.psf

Pseudopotential generated from a relativistic atomic calculation
There are spin-orbit pseudopotentials available
Spin-orbit interaction is not included in this calculation

Valence configuration for pseudopotential generation:
4s( 2.00) rc: 2.00
4p( 0.00) rc: 2.00
3d( 6.00) rc: 2.00
4f( 0.00) rc: 2.00
For Fe, standard SIESTA heuristics set lmxkb to 3
 (one more than the basis l, including polarization orbitals).
Use PS.lmax or PS.KBprojectors blocks to override.

<basis_specs>
===============================================================================
Fe                   Z=  26    Mass=  55.850        Charge= 0.17977+309
Lmxo=2 Lmxkb= 3    BasisType=split      Semic=F
L=0  Nsemic=0  Cnfigmx=4
          n=1  nzeta=2  polorb=1
            splnorm:   0.15000    
               vcte:    0.0000    
               rinn:    0.0000    
               qcoe:    0.0000    
               qyuk:    0.0000    
               qwid:   0.10000E-01
                rcs:    0.0000      0.0000    
            lambdas:    1.0000      1.0000    
L=1  Nsemic=0  Cnfigmx=4
L=2  Nsemic=0  Cnfigmx=3
          n=1  nzeta=2  polorb=0
            splnorm:   0.15000    
               vcte:    0.0000    
               rinn:    0.0000    
               qcoe:    0.0000    
               qyuk:    0.0000    
               qwid:   0.10000E-01
                rcs:    0.0000      0.0000    
            lambdas:    1.0000      1.0000    
-------------------------------------------------------------------------------
L=0  Nkbl=1  erefs: 0.17977+309
L=1  Nkbl=1  erefs: 0.17977+309
L=2  Nkbl=1  erefs: 0.17977+309
L=3  Nkbl=1  erefs: 0.17977+309
===============================================================================
</basis_specs>

atom: Called for Fe                    (Z =  26)

read_vps: Pseudopotential generation method:
read_vps: ATM3      Troullier-Martins                       
Total valence charge:    8.00000

read_vps: Pseudopotential includes a core correction:
read_vps: Pseudo-core for xc-correction

xc_check: Exchange-correlation functional:
xc_check: GGA Perdew, Burke & Ernzerhof 1996
V l=0 = -2*Zval/r beyond r=  2.7645
V l=1 = -2*Zval/r beyond r=  2.7645
V l=2 = -2*Zval/r beyond r=  2.7645
V l=3 = -2*Zval/r beyond r=  2.7645
All V_l potentials equal beyond r=  1.9726
This should be close to max(r_c) in ps generation
All pots = -2*Zval/r beyond r=  2.7645
Using large-core scheme for Vlocal

atom: Estimated core radius    2.76453
atom: Maximum radius for 4*pi*r*r*local-pseudopot. charge    3.05528
atom: Maximum radius for r*vlocal+2*Zval:    2.79930
GHOST: No ghost state for L =  0
GHOST: No ghost state for L =  1
GHOST: No ghost state for L =  2
GHOST: No ghost state for L =  3

KBgen: Kleinman-Bylander projectors: 
   l= 0   rc=  2.047986   el= -0.388305   Ekb=  4.264000   kbcos=  0.262873
   l= 1   rc=  2.047986   el= -0.097543   Ekb=  2.849253   kbcos=  0.194234
   l= 2   rc=  2.022544   el= -0.553240   Ekb=-12.559631   kbcos= -0.683748
   l= 3   rc=  2.047986   el=  0.003178   Ekb= -1.654284   kbcos= -0.006603

KBgen: Total number of  Kleinman-Bylander projectors:   16
atom: -------------------------------------------------------------------------

atom: SANKEY-TYPE ORBITALS:
atom: Selected multiple-zeta basis: split     

SPLIT: Orbitals with angular momentum L= 0

SPLIT: Basis orbitals for state 4s

SPLIT: PAO cut-off radius determined from an
SPLIT: energy shift=  0.020000 Ry

   izeta = 1
                 lambda =    1.000000
                     rc =    6.308440
                 energy =   -0.368145
                kinetic =    0.348842
    potential(screened) =   -0.716987
       potential(ionic) =   -6.129277

   izeta = 2
                 rmatch =    5.926225
              splitnorm =    0.150000
                 energy =   -0.314432
                kinetic =    0.521394
    potential(screened) =   -0.835826
       potential(ionic) =   -6.581565

SPLIT: Orbitals with angular momentum L= 2

SPLIT: Basis orbitals for state 3d

SPLIT: PAO cut-off radius determined from an
SPLIT: energy shift=  0.020000 Ry

   izeta = 1
                 lambda =    1.000000
                     rc =    3.731752
                 energy =   -0.535586
                kinetic =    9.598648
    potential(screened) =  -10.134233
       potential(ionic) =  -18.978381

   izeta = 2
                 rmatch =    2.126247
              splitnorm =    0.150000
                 energy =   -0.064651
                kinetic =   13.267357
    potential(screened) =  -13.332008
       potential(ionic) =  -22.747442

POLgen: Perturbative polarization orbital with L=  1

POLgen: Polarization orbital for state 4s

   izeta = 1
                     rc =    6.308440
                 energy =   -0.029040
                kinetic =    0.656471
    potential(screened) =   -0.685511
       potential(ionic) =   -5.738419
atom: Total number of Sankey-type orbitals: 15

atm_pop: Valence configuration (for local Pseudopot. screening):
 4s( 2.00)                                                            
 4p( 0.00)                                                            
 3d( 6.00)                                                            
Vna: chval, zval:    8.00000   8.00000

Vna:  Cut-off radius for the neutral-atom potential:   6.308440
comcore: Pseudo-core radius Rcore=  3.778693

atom: _________________________________________________________________________

prinput: Basis input ----------------------------------------------------------

PAO.BasisType split     

%block ChemicalSpeciesLabel
    1   26 Fe                      # Species index, atomic number, species label
%endblock ChemicalSpeciesLabel

%block PAO.Basis                 # Define Basis set
Fe                    2                    # Species label, number of l-shells
 n=4   0   2 P   1                   # n, l, Nzeta, Polarization, NzetaPol
   6.308      5.926   
   1.000      1.000   
 n=3   2   2                         # n, l, Nzeta 
   3.732      2.126   
   1.000      1.000   
%endblock PAO.Basis

prinput: ----------------------------------------------------------------------

Dumping basis to NetCDF file Fe.ion.nc
coor:   Atomic-coordinates input format  =     Cartesian coordinates
coor:                                          (in units of alat)

siesta: Atomic coordinates (Bohr) and species
siesta:      0.00000   0.00000   0.00000  1        1
siesta:      2.71176   2.71176   2.71176  1        2

siesta: System type = bulk      

initatomlists: Number of atoms, orbitals, and projectors:      2    30    32

siesta: ******************** Simulation parameters ****************************
siesta:
siesta: The following are some of the parameters of the simulation.
siesta: A complete list of the parameters used, including default values,
siesta: can be found in file out.fdf
siesta:
redata: Spin configuration                          = collinear
redata: Number of spin components                   = 2
redata: Time-Reversal Symmetry                      = T
redata: Spin-spiral                                 = F
redata: Long output                                 =   F
redata: Number of Atomic Species                    =        1
redata: Charge density info will appear in .RHO file
redata: Write Mulliken Pop.                         = NO
redata: Mesh Cutoff                                 =  2000.0000 Ry
redata: Net charge of the system                    =     0.0000 |e|
redata: Min. number of SCF Iter                     =        0
redata: Max. number of SCF Iter                     =       50
redata: SCF mix quantity                            = Hamiltonian
redata: Mix DM or H after convergence               =   F
redata: Recompute H after scf cycle                 =   F
redata: Mix DM in first SCF step                    =   T
redata: Write Pulay info on disk                    =   F
redata: New DM Mixing Weight                        =     0.1000
redata: New DM Occupancy tolerance                  = 0.000000000001
redata: No kicks to SCF
redata: DM Mixing Weight for Kicks                  =     0.5000
redata: Require Harris convergence for SCF          =   F
redata: Harris energy tolerance for SCF             =     0.000100 eV
redata: Require DM convergence for SCF              =   T
redata: DM tolerance for SCF                        =     0.0010
redata: Require EDM convergence for SCF             =   F
redata: EDM tolerance for SCF                       =     0.001000 eV
redata: Require H convergence for SCF               =   T
redata: Hamiltonian tolerance for SCF               =     0.001000 eV
redata: Require (free) Energy convergence for SCF   =   F
redata: (free) Energy tolerance for SCF             =     0.000100 eV
redata: Antiferro initial spin density              =   F
redata: Using Saved Data (generic)                  =   F
redata: Use continuation files for DM               =   F
redata: Neglect nonoverlap interactions             =   F
redata: Method of Calculation                       = Diagonalization
redata: Divide and Conquer                          =   T
redata: Electronic Temperature                      =   290.1109 K
redata: Fix the spin of the system                  =   F
redata: Dynamics option                             = Single-point calculation
mix.SCF: Pulay mixing                            = Pulay
mix.SCF:    Variant                              = stable
mix.SCF:    History steps                        = 3
mix.SCF:    Linear mixing weight                 =     0.100000
mix.SCF:    Mixing weight                        =     0.100000
mix.SCF:    SVD condition                        = 0.1000E-07
mix.SCF: Spin-component mixing                   all
redata: Save all siesta data in one NC              =   T
redata: NC compression level                        =        0
redata: ***********************************************************************

%block SCF.Mixers
  Pulay
%endblock SCF.Mixers

%block SCF.Mixer.Pulay
  # Mixing method
  method pulay
  variant stable

  # Mixing options
  weight 0.1000
  weight.linear 0.1000
  history 3
%endblock SCF.Mixer.Pulay

DM_history_depth set to one: no extrapolation allowed by default for geometry relaxation
Size of DM history Fstack: 1
Total number of electrons:    16.000000
Total ionic charge:    16.000000

* ProcessorY, Blocksize:    2   8


* Orbital distribution balance (max,min):     8     6

 Kpoints in:          726 . Kpoints trimmed:          666

siesta: k-grid: Number of k-points =   666
siesta: k-grid: Cutoff (effective) =    15.785 Ang
siesta: k-grid: Supercell and displacements
siesta: k-grid:    0  11   0      0.000
siesta: k-grid:    0   0  11      0.000
siesta: k-grid:   11   0   0      0.000

superc: Internal auxiliary supercell:     5 x     5 x     5  =     125
superc: Number of atoms, orbitals, and projectors:    250   3750   4000


                     ====================================
                        Single-point calculation
                     ====================================

superc: Internal auxiliary supercell:     5 x     5 x     5  =     125
superc: Number of atoms, orbitals, and projectors:    250   3750   4000

outcell: Unit cell vectors (Ang):
        2.870000    0.000000    0.000000
        0.000000    2.870000    0.000000
        0.000000    0.000000    2.870000

outcell: Cell vector modules (Ang)   :    2.870000    2.870000    2.870000
outcell: Cell angles (23,13,12) (deg):     90.0000     90.0000     90.0000
outcell: Cell volume (Ang**3)        :     23.6399
<dSpData1D:S at geom step 0
  <sparsity:sparsity for geom step 0
    nrows_g=30 nrows=8 sparsity=8.8111 nnzs=7930, refcount: 7>
  <dData1D:(new from dSpData1D) n=7930, refcount: 1>
refcount: 1>
new_DM -- step:     1
Initializing Density Matrix...
DM filled with atomic data:
<dSpData2D:DM initialized from atoms
  <sparsity:sparsity for geom step 0
    nrows_g=30 nrows=8 sparsity=8.8111 nnzs=7930, refcount: 8>
  <dData2D:DM n=7930 m=2, refcount: 1>
refcount: 1>

initDM: Initial spin polarization (Qup-Qdown) =    8.000000

No. of atoms with KB's overlaping orbs in proc 0. Max # of overlaps:      27     215
New grid distribution:   1
           1       1:   40    1:   20    1:   20
           2       1:   40    1:   20   21:   40
           3       1:   40   21:   40    1:   20
           4       1:   40   21:   40   21:   40

InitMesh: MESH =    80 x    80 x    80 =      512000
InitMesh: (bp) =    40 x    40 x    40 =       64000
InitMesh: Mesh cutoff (required, used) =  2000.000  2147.424 Ry
ExtMesh (bp) on 0 =   228 x   208 x   208 =     9864192
New grid distribution:   2
           1       1:   40    1:   20    1:   20
           2       1:   40    1:   20   21:   40
           3       1:   40   21:   40    1:   20
           4       1:   40   21:   40   21:   40
New grid distribution:   3
           1       1:   40    1:   20    1:   20
           2       1:   40    1:   20   21:   40
           3       1:   40   21:   40    1:   20
           4       1:   40   21:   40   21:   40
Setting up quadratic distribution...
ExtMesh (bp) on 0 =   228 x   208 x   208 =     9864192
PhiOnMesh: Number of (b)points on node 0 =                16000
PhiOnMesh: nlist on node 0 =              1314480

stepf: Fermi-Dirac step function

siesta: Program's energy decomposition (eV):
siesta: Ebs     =      -144.722733
siesta: Eions   =      1423.902826
siesta: Ena     =        39.444938
siesta: Ekin    =      1464.316841
siesta: Enl     =      -888.442605
siesta: Eso     =         0.000000
siesta: Eldau   =         0.000000
siesta: DEna    =        16.251605
siesta: DUscf   =         2.230704
siesta: DUext   =         0.000000
siesta: Exc     =      -808.078763
siesta: eta*DQ  =         0.000000
siesta: Emadel  =         0.000000
siesta: Emeta   =         0.000000
siesta: Emolmec =         0.000000
siesta: Ekinion =         0.000000
siesta: Eharris =     -1598.552648
siesta: Etot    =     -1598.180106
siesta: FreeEng =     -1598.184515

        iscf     Eharris(eV)        E_KS(eV)     FreeEng(eV)     dDmax    Ef(eV) dHmax(eV)
   scf:    1    -1598.552648    -1598.180106    -1598.184515  0.699469 -3.884634  4.954539
timer: Routine,Calls,Time,% = IterSCF        1       7.784  51.50
   scf:    2    -1599.222061    -1598.722773    -1598.726653  0.025456 -4.182247  3.821188
   scf:    3    -1599.709717    -1599.459518    -1599.463745  0.079591 -5.111751  0.630208
   scf:    4    -1599.072267    -1599.335155    -1599.339922  0.036234 -4.860449  1.825869
   scf:    5    -1599.653733    -1599.535698    -1599.539895  0.037217 -5.397524  0.076528
   scf:    6    -1599.540022    -1599.537732    -1599.542188  0.003951 -5.403160  0.079924
   scf:    7    -1599.542092    -1599.539725    -1599.544470  0.004389 -5.413186  0.065828
   scf:    8    -1599.552156    -1599.544604    -1599.549326  0.011394 -5.424685  0.046732
   scf:    9    -1599.555129    -1599.546351    -1599.551673  0.017208 -5.412259  0.033986
   scf:   10    -1599.552926    -1599.539001    -1599.543623  0.032366 -5.408015  0.066868
   scf:   11    -1599.569471    -1599.546870    -1599.552070  0.026354 -5.416126  0.015699
   scf:   12    -1599.546947    -1599.546905    -1599.552060  0.000624 -5.415326  0.011584
   scf:   13    -1599.546959    -1599.546930    -1599.552046  0.000433 -5.414431  0.007881
   scf:   14    -1599.546948    -1599.546939    -1599.552057  0.000535 -5.413271  0.003764
   scf:   15    -1599.546928    -1599.546933    -1599.552061  0.000097 -5.413186  0.003604
   scf:   16    -1599.546801    -1599.546830    -1599.552094  0.001712 -5.412360  0.000469
   scf:   17    -1599.546811    -1599.546820    -1599.552095  0.000168 -5.412334  0.000204

SCF Convergence by DM+H criterion
max |DM_out - DM_in|         :     0.0001681462
max |H_out - H_in|      (eV) :     0.0002042932
SCF cycle converged after 17 iterations

Using DM_out to compute the final energy and forces
No. of atoms with KB's overlaping orbs in proc 0. Max # of overlaps:      27     215

siesta: E_KS(eV) =            -1599.5468

siesta: E_KS - E_eggbox =     -1599.5468

siesta: Atomic forces (eV/Ang):
----------------------------------------
   Tot    0.000000    0.000000    0.000000
----------------------------------------
   Max    0.000000
   Res    0.000000    sqrt( Sum f_i^2 / 3N )
----------------------------------------
   Max    0.000000    constrained

Stress-tensor-Voigt (kbar):       78.11       78.11       78.11        0.00        0.00       -0.00
(Free)E + p*V (eV/cell)    -1600.7045
Target enthalpy (eV/cell)    -1599.5521

siesta: Program's energy decomposition (eV):
siesta: Ebs     =      -121.909103
siesta: Eions   =      1423.902826
siesta: Ena     =        39.444938
siesta: Ekin    =      1547.271404
siesta: Enl     =      -951.437327
siesta: Eso     =         0.000000
siesta: Eldau   =         0.000000
siesta: DEna    =         6.237904
siesta: DUscf   =         0.363148
siesta: DUext   =         0.000000
siesta: Exc     =      -817.524062
siesta: eta*DQ  =         0.000000
siesta: Emadel  =         0.000000
siesta: Emeta   =         0.000000
siesta: Emolmec =         0.000000
siesta: Ekinion =         0.000000
siesta: Eharris =     -1599.546811
siesta: Etot    =     -1599.546820
siesta: FreeEng =     -1599.552095

siesta: Final energy (eV):
siesta:  Band Struct. =    -121.909103
siesta:       Kinetic =    1547.271404
siesta:       Hartree =     174.192876
siesta:       Eldau   =       0.000000
siesta:       Eso     =       0.000000
siesta:    Ext. field =       0.000000
siesta:   Exch.-corr. =    -817.524062
siesta:  Ion-electron =   -1639.636610
siesta:       Ion-ion =    -863.850429
siesta:       Ekinion =       0.000000
siesta:         Total =   -1599.546820
siesta:         Fermi =      -5.412334

siesta: Stress tensor (static) (eV/Ang**3):
siesta:     0.048749    0.000000   -0.000000
siesta:     0.000000    0.048749   -0.000000
siesta:    -0.000000    0.000000    0.048749

siesta: Cell volume =         23.639903 Ang**3

siesta: Pressure (static):
siesta:                Solid            Molecule  Units
siesta:          -0.00053094         -0.00053094  Ry/Bohr**3
siesta:          -0.04874926         -0.04874926  eV/Ang**3
siesta:         -78.10576677        -78.10576677  kBar
(Free)E+ p_basis*V_orbitals  =       -1598.356040
(Free)Eharris+ p_basis*V_orbitals  =       -1598.356031

siesta: Total spin polarization (Qup-Qdown) =    4.641186
>> End of run:   8-AUG-2017  10:59:46
