
                           ***********************       
                           *  WELCOME TO SIESTA  *       
                           ***********************       

reinit: Reading from standard input
reinit: Dumped input in INPUT_TMP.13452
************************** Dump of input data file ****************************
SystemName       bcc Fe ferro GGA   # Descriptive name of the system
SystemLabel            Fe           # Short name for naming files
# Species and atoms
NumberOfSpecies        1
NumberOfAtoms          1
%block ChemicalSpeciesLabel
  1  26  Fe
%endblock ChemicalSpeciesLabel
# Basis
PAO.BasisSize         DZP
# Lattice and geometry
LatticeConstant       2.87 Ang
%block LatticeVectors
 1.00000   0.000000  0.000000
 0.00000   1.000000  0.000000
 0.50000   0.500000  0.500000
%endblock LatticeVectors
# Atomic coordinates
AtomicCoordinatesFormat     ScaledCartesian
%block AtomicCoordinatesAndAtomicSpecies
  0.000000000000    0.000000000000    0.000000000000  1
%endblock AtomicCoordinatesAndAtomicSpecies
KgridCutoff          15. Ang
# SCF options
DM.MixingWeight       0.1           # New DM amount for next SCF cycle
DM.Tolerance          1.d-3         # Tolerance in maximum difference
DM.NumberPulay         3
SolutionMethod        diagon        # OrderN or Diagon
ElectronicTemperature  25 meV       # Temp. for Fermi smearing
xc.functional         GGA           # Exchange-correlation functional
xc.authors            PBE           # Exchange-correlation version
SpinPolarized         true          # Logical parameters are: yes or no
MeshCutoff           2000. Ry        # Mesh cutoff. real space mesh
# Output options
CDF.Save              true
WriteDMHS.NetCDF      true
SaveHS                true
************************** End of input data file *****************************

reinit: -----------------------------------------------------------------------
reinit: System Name: bcc Fe ferro GGA
reinit: -----------------------------------------------------------------------
reinit: System Label: Fe
reinit: -----------------------------------------------------------------------
Siesta Version: siesta-4.1--719
Architecture  : x86_64-unknown-linux-gnu--Gfortran
Compiler flags: mpif90 -g -O2
PP flags      : -DMPI -DFC_HAVE_FLUSH -DFC_HAVE_ABORT -DCDF -DGRID_DP -DPHI_GRID_SP -DNCDF -DNCDF_4
Libraries     : -lnetcdff -lnetcdf -lpthread -lscalapack -lblacsF77init-openmpi -lblacsCinit-openmpi -lblacs-openmpi /usr/lib/lapack/liblapack.a -lblas
PARALLEL version
NetCDF support
NetCDF-4 support

* Running on 4 nodes in parallel
>> Start of run:   8-AUG-2017   9:34:38

initatom: Reading input for the pseudopotentials and atomic orbitals ----------
Species number:   1 Atomic number:   26 Label: Fe

Ground state valence configuration:   4s02  3d06
Reading pseudopotential information in formatted form from Fe.psf

Pseudopotential generated from a relativistic atomic calculation
There are spin-orbit pseudopotentials available
Spin-orbit interaction is not included in this calculation

Valence configuration for pseudopotential generation:
4s( 2.00) rc: 2.00
4p( 0.00) rc: 2.00
3d( 6.00) rc: 2.00
4f( 0.00) rc: 2.00
For Fe, standard SIESTA heuristics set lmxkb to 3
 (one more than the basis l, including polarization orbitals).
Use PS.lmax or PS.KBprojectors blocks to override.

<basis_specs>
===============================================================================
Fe                   Z=  26    Mass=  55.850        Charge= 0.17977+309
Lmxo=2 Lmxkb= 3    BasisType=split      Semic=F
L=0  Nsemic=0  Cnfigmx=4
          n=1  nzeta=2  polorb=1
            splnorm:   0.15000    
               vcte:    0.0000    
               rinn:    0.0000    
               qcoe:    0.0000    
               qyuk:    0.0000    
               qwid:   0.10000E-01
                rcs:    0.0000      0.0000    
            lambdas:    1.0000      1.0000    
L=1  Nsemic=0  Cnfigmx=4
L=2  Nsemic=0  Cnfigmx=3
          n=1  nzeta=2  polorb=0
            splnorm:   0.15000    
               vcte:    0.0000    
               rinn:    0.0000    
               qcoe:    0.0000    
               qyuk:    0.0000    
               qwid:   0.10000E-01
                rcs:    0.0000      0.0000    
            lambdas:    1.0000      1.0000    
-------------------------------------------------------------------------------
L=0  Nkbl=1  erefs: 0.17977+309
L=1  Nkbl=1  erefs: 0.17977+309
L=2  Nkbl=1  erefs: 0.17977+309
L=3  Nkbl=1  erefs: 0.17977+309
===============================================================================
</basis_specs>

atom: Called for Fe                    (Z =  26)

read_vps: Pseudopotential generation method:
read_vps: ATM3      Troullier-Martins                       
Total valence charge:    8.00000

read_vps: Pseudopotential includes a core correction:
read_vps: Pseudo-core for xc-correction

xc_check: Exchange-correlation functional:
xc_check: GGA Perdew, Burke & Ernzerhof 1996
V l=0 = -2*Zval/r beyond r=  2.7645
V l=1 = -2*Zval/r beyond r=  2.7645
V l=2 = -2*Zval/r beyond r=  2.7645
V l=3 = -2*Zval/r beyond r=  2.7645
All V_l potentials equal beyond r=  1.9726
This should be close to max(r_c) in ps generation
All pots = -2*Zval/r beyond r=  2.7645
Using large-core scheme for Vlocal

atom: Estimated core radius    2.76453
atom: Maximum radius for 4*pi*r*r*local-pseudopot. charge    3.05528
atom: Maximum radius for r*vlocal+2*Zval:    2.79930
GHOST: No ghost state for L =  0
GHOST: No ghost state for L =  1
GHOST: No ghost state for L =  2
GHOST: No ghost state for L =  3

KBgen: Kleinman-Bylander projectors: 
   l= 0   rc=  2.047986   el= -0.388305   Ekb=  4.264000   kbcos=  0.262873
   l= 1   rc=  2.047986   el= -0.097543   Ekb=  2.849253   kbcos=  0.194234
   l= 2   rc=  2.022544   el= -0.553240   Ekb=-12.559631   kbcos= -0.683748
   l= 3   rc=  2.047986   el=  0.003178   Ekb= -1.654284   kbcos= -0.006603

KBgen: Total number of  Kleinman-Bylander projectors:   16
atom: -------------------------------------------------------------------------

atom: SANKEY-TYPE ORBITALS:
atom: Selected multiple-zeta basis: split     

SPLIT: Orbitals with angular momentum L= 0

SPLIT: Basis orbitals for state 4s

SPLIT: PAO cut-off radius determined from an
SPLIT: energy shift=  0.020000 Ry

   izeta = 1
                 lambda =    1.000000
                     rc =    6.308440
                 energy =   -0.368145
                kinetic =    0.348842
    potential(screened) =   -0.716987
       potential(ionic) =   -6.129277

   izeta = 2
                 rmatch =    5.926225
              splitnorm =    0.150000
                 energy =   -0.314432
                kinetic =    0.521394
    potential(screened) =   -0.835826
       potential(ionic) =   -6.581565

SPLIT: Orbitals with angular momentum L= 2

SPLIT: Basis orbitals for state 3d

SPLIT: PAO cut-off radius determined from an
SPLIT: energy shift=  0.020000 Ry

   izeta = 1
                 lambda =    1.000000
                     rc =    3.731752
                 energy =   -0.535586
                kinetic =    9.598648
    potential(screened) =  -10.134233
       potential(ionic) =  -18.978381

   izeta = 2
                 rmatch =    2.126247
              splitnorm =    0.150000
                 energy =   -0.064651
                kinetic =   13.267357
    potential(screened) =  -13.332008
       potential(ionic) =  -22.747442

POLgen: Perturbative polarization orbital with L=  1

POLgen: Polarization orbital for state 4s

   izeta = 1
                     rc =    6.308440
                 energy =   -0.029040
                kinetic =    0.656471
    potential(screened) =   -0.685511
       potential(ionic) =   -5.738419
atom: Total number of Sankey-type orbitals: 15

atm_pop: Valence configuration (for local Pseudopot. screening):
 4s( 2.00)                                                            
 4p( 0.00)                                                            
 3d( 6.00)                                                            
Vna: chval, zval:    8.00000   8.00000

Vna:  Cut-off radius for the neutral-atom potential:   6.308440
comcore: Pseudo-core radius Rcore=  3.778693

atom: _________________________________________________________________________

prinput: Basis input ----------------------------------------------------------

PAO.BasisType split     

%block ChemicalSpeciesLabel
    1   26 Fe                      # Species index, atomic number, species label
%endblock ChemicalSpeciesLabel

%block PAO.Basis                 # Define Basis set
Fe                    2                    # Species label, number of l-shells
 n=4   0   2 P   1                   # n, l, Nzeta, Polarization, NzetaPol
   6.308      5.926   
   1.000      1.000   
 n=3   2   2                         # n, l, Nzeta 
   3.732      2.126   
   1.000      1.000   
%endblock PAO.Basis

prinput: ----------------------------------------------------------------------

Dumping basis to NetCDF file Fe.ion.nc
coor:   Atomic-coordinates input format  =     Cartesian coordinates
coor:                                          (in units of alat)

siesta: Atomic coordinates (Bohr) and species
siesta:      0.00000   0.00000   0.00000  1        1

siesta: System type = bulk      

initatomlists: Number of atoms, orbitals, and projectors:      1    15    16

siesta: ******************** Simulation parameters ****************************
siesta:
siesta: The following are some of the parameters of the simulation.
siesta: A complete list of the parameters used, including default values,
siesta: can be found in file out.fdf
siesta:
redata: Spin configuration                          = collinear
redata: Number of spin components                   = 2
redata: Time-Reversal Symmetry                      = T
redata: Spin-spiral                                 = F
redata: Long output                                 =   F
redata: Number of Atomic Species                    =        1
redata: Charge density info will appear in .RHO file
redata: Write Mulliken Pop.                         = NO
redata: Mesh Cutoff                                 =  2000.0000 Ry
redata: Net charge of the system                    =     0.0000 |e|
redata: Min. number of SCF Iter                     =        0
redata: Max. number of SCF Iter                     =       50
redata: SCF mix quantity                            = Hamiltonian
redata: Mix DM or H after convergence               =   F
redata: Recompute H after scf cycle                 =   F
redata: Mix DM in first SCF step                    =   T
redata: Write Pulay info on disk                    =   F
redata: New DM Mixing Weight                        =     0.1000
redata: New DM Occupancy tolerance                  = 0.000000000001
redata: No kicks to SCF
redata: DM Mixing Weight for Kicks                  =     0.5000
redata: Require Harris convergence for SCF          =   F
redata: Harris energy tolerance for SCF             =     0.000100 eV
redata: Require DM convergence for SCF              =   T
redata: DM tolerance for SCF                        =     0.0010
redata: Require EDM convergence for SCF             =   F
redata: EDM tolerance for SCF                       =     0.001000 eV
redata: Require H convergence for SCF               =   T
redata: Hamiltonian tolerance for SCF               =     0.001000 eV
redata: Require (free) Energy convergence for SCF   =   F
redata: (free) Energy tolerance for SCF             =     0.000100 eV
redata: Antiferro initial spin density              =   F
redata: Using Saved Data (generic)                  =   F
redata: Use continuation files for DM               =   F
redata: Neglect nonoverlap interactions             =   F
redata: Method of Calculation                       = Diagonalization
redata: Divide and Conquer                          =   T
redata: Electronic Temperature                      =   290.1109 K
redata: Fix the spin of the system                  =   F
redata: Dynamics option                             = Single-point calculation
mix.SCF: Pulay mixing                            = Pulay
mix.SCF:    Variant                              = stable
mix.SCF:    History steps                        = 3
mix.SCF:    Linear mixing weight                 =     0.100000
mix.SCF:    Mixing weight                        =     0.100000
mix.SCF:    SVD condition                        = 0.1000E-07
mix.SCF: Spin-component mixing                   all
redata: Save all siesta data in one NC              =   T
redata: NC compression level                        =        0
redata: ***********************************************************************

%block SCF.Mixers
  Pulay
%endblock SCF.Mixers

%block SCF.Mixer.Pulay
  # Mixing method
  method pulay
  variant stable

  # Mixing options
  weight 0.1000
  weight.linear 0.1000
  history 3
%endblock SCF.Mixer.Pulay

DM_history_depth set to one: no extrapolation allowed by default for geometry relaxation
Size of DM history Fstack: 1
Total number of electrons:     8.000000
Total ionic charge:     8.000000

* ProcessorY, Blocksize:    2   4


* Orbital distribution balance (max,min):     4     3

 Kpoints in:         1183 . Kpoints trimmed:         1099

siesta: k-grid: Number of k-points =  1099
siesta: k-grid: Cutoff (effective) =    16.156 Ang
siesta: k-grid: Supercell and displacements
siesta: k-grid:  -13 -13  13      0.000
siesta: k-grid:  -13   0  13      0.000
siesta: k-grid:    0   0  13      0.000

superc: Internal auxiliary supercell:     9 x     9 x     9  =     729
superc: Number of atoms, orbitals, and projectors:    729  10935  11664


                     ====================================
                        Single-point calculation
                     ====================================

superc: Internal auxiliary supercell:     9 x     9 x     9  =     729
superc: Number of atoms, orbitals, and projectors:    729  10935  11664

outcell: Unit cell vectors (Ang):
        2.870000    0.000000    0.000000
        0.000000    2.870000    0.000000
        1.435000    1.435000    1.435000

outcell: Cell vector modules (Ang)   :    2.870000    2.870000    2.485493
outcell: Cell angles (23,13,12) (deg):     54.7356     54.7356     90.0000
outcell: Cell volume (Ang**3)        :     11.8200
<dSpData1D:S at geom step 0
  <sparsity:sparsity for geom step 0
    nrows_g=15 nrows=4 sparsity=21.4222 nnzs=4820, refcount: 7>
  <dData1D:(new from dSpData1D) n=4820, refcount: 1>
refcount: 1>
new_DM -- step:     1
Initializing Density Matrix...
DM filled with atomic data:
<dSpData2D:DM initialized from atoms
  <sparsity:sparsity for geom step 0
    nrows_g=15 nrows=4 sparsity=21.4222 nnzs=4820, refcount: 8>
  <dData2D:DM n=4820 m=2, refcount: 1>
refcount: 1>

initDM: Initial spin polarization (Qup-Qdown) =    4.000000

No. of atoms with KB's overlaping orbs in proc 0. Max # of overlaps:      27     215
New grid distribution:   1
           1       1:   36    1:   18    1:   13
           2       1:   36    1:   18   14:   25
           3       1:   36   19:   36    1:   13
           4       1:   36   19:   36   14:   25

InitMesh: MESH =    72 x    72 x    50 =      259200
InitMesh: (bp) =    36 x    36 x    25 =       32400
InitMesh: Mesh cutoff (required, used) =  2000.000  2002.473 Ry
ExtMesh (bp) on 0 =   276 x   258 x   249 =    17730792
New grid distribution:   2
           1       1:   18    1:   18    1:   25
           2      19:   36    1:   18    1:   25
           3       1:   18   19:   36    1:   25
           4      19:   36   19:   36    1:   25
New grid distribution:   3
           1       1:   18    1:   18    1:   25
           2      19:   36    1:   18    1:   25
           3       1:   18   19:   36    1:   25
           4      19:   36   19:   36    1:   25
Setting up quadratic distribution...
ExtMesh (bp) on 0 =   258 x   258 x   261 =    17373204
PhiOnMesh: Number of (b)points on node 0 =                 8100
PhiOnMesh: nlist on node 0 =               676827

stepf: Fermi-Dirac step function

siesta: Program's energy decomposition (eV):
siesta: Ebs     =       -72.384496
siesta: Eions   =       711.951413
siesta: Ena     =        19.722469
siesta: Ekin    =       732.020041
siesta: Enl     =      -444.141046
siesta: Eso     =         0.000000
siesta: Eldau   =         0.000000
siesta: DEna    =         8.138447
siesta: DUscf   =         1.119007
siesta: DUext   =         0.000000
siesta: Exc     =      -404.004640
siesta: eta*DQ  =         0.000000
siesta: Emadel  =         0.000000
siesta: Emeta   =         0.000000
siesta: Emolmec =         0.000000
siesta: Ekinion =         0.000000
siesta: Eharris =      -799.295045
siesta: Etot    =      -799.097135
siesta: FreeEng =      -799.098934

        iscf     Eharris(eV)        E_KS(eV)     FreeEng(eV)     dDmax    Ef(eV) dHmax(eV)
   scf:    1     -799.295045     -799.097135     -799.098934  0.700346 -3.868902  4.972330
timer: Routine,Calls,Time,% = IterSCF        1       6.268  39.04
   scf:    2     -799.580581     -799.349141     -799.351053  0.027877 -4.192183  3.847482
   scf:    3     -799.867089     -799.736115     -799.738071  0.078327 -5.133958  0.708653
   scf:    4     -798.929135     -799.409987     -799.412654  0.064131 -5.591882  3.677748
   scf:    5     -799.931364     -799.764117     -799.766714  0.065496 -5.392781  0.131311
   scf:    6     -799.765821     -799.764959     -799.767590  0.002544 -5.409530  0.072129
   scf:    7     -799.768994     -799.766761     -799.769315  0.006564 -5.413344  0.072413
   scf:    8     -799.775150     -799.769875     -799.772105  0.013844 -5.413229  0.043084
   scf:    9     -799.769296     -799.769540     -799.771766  0.002934 -5.415213  0.036497
   scf:   10     -799.771163     -799.770216     -799.772480  0.004330 -5.415431  0.036042
   scf:   11     -799.770477     -799.770339     -799.772605  0.001009 -5.413473  0.029813
   scf:   12     -799.770759     -799.770522     -799.772772  0.001943 -5.407399  0.010323
   scf:   13     -799.770539     -799.770531     -799.772778  0.000099 -5.407267  0.010691
   scf:   14     -799.770610     -799.770569     -799.772798  0.000451 -5.407028  0.011423
   scf:   15     -799.770585     -799.770577     -799.772802  0.000110 -5.407216  0.010579
   scf:   16     -799.770602     -799.770589     -799.772809  0.000176 -5.407476  0.008799
   scf:   17     -799.770639     -799.770613     -799.772826  0.000395 -5.407395  0.007180
   scf:   18     -799.770660     -799.770635     -799.772840  0.000408 -5.406991  0.006168
   scf:   19     -799.770717     -799.770672     -799.772857  0.000782 -5.405645  0.003351
   scf:   20     -799.770678     -799.770675     -799.772858  0.000066 -5.405560  0.003295
   scf:   21     -799.770705     -799.770689     -799.772861  0.000285 -5.405485  0.002738
   scf:   22     -799.770692     -799.770691     -799.772861  0.000034 -5.405541  0.002367
   scf:   23     -799.770692     -799.770692     -799.772861  0.000040 -5.405711  0.001315
   scf:   24     -799.770692     -799.770692     -799.772862  0.000017 -5.405691  0.001186
   scf:   25     -799.770695     -799.770693     -799.772862  0.000087 -5.405501  0.000837

SCF Convergence by DM+H criterion
max |DM_out - DM_in|         :     0.0000873201
max |H_out - H_in|      (eV) :     0.0008370400
SCF cycle converged after 25 iterations

Using DM_out to compute the final energy and forces
No. of atoms with KB's overlaping orbs in proc 0. Max # of overlaps:      27     215

siesta: E_KS(eV) =             -799.7707

siesta: E_KS - E_eggbox =      -799.7707

siesta: Atomic forces (eV/Ang):
----------------------------------------
   Tot   -0.000000    0.000000   -0.000000
----------------------------------------
   Max    0.000000
   Res    0.000000    sqrt( Sum f_i^2 / 3N )
----------------------------------------
   Max    0.000000    constrained

Stress-tensor-Voigt (kbar):       81.17       81.17       83.43       -0.71       -0.57       -0.57
(Free)E + p*V (eV/cell)     -800.3773
Target enthalpy (eV/cell)     -799.7729

siesta: Program's energy decomposition (eV):
siesta: Ebs     =       -61.006133
siesta: Eions   =       711.951413
siesta: Ena     =        19.722469
siesta: Ekin    =       773.432970
siesta: Enl     =      -475.582440
siesta: Eso     =         0.000000
siesta: Eldau   =         0.000000
siesta: DEna    =         3.146298
siesta: DUscf   =         0.184217
siesta: DUext   =         0.000000
siesta: Exc     =      -408.722795
siesta: eta*DQ  =         0.000000
siesta: Emadel  =         0.000000
siesta: Emeta   =         0.000000
siesta: Emolmec =         0.000000
siesta: Ekinion =         0.000000
siesta: Eharris =      -799.770695
siesta: Etot    =      -799.770693
siesta: FreeEng =      -799.772862

siesta: Final energy (eV):
siesta:  Band Struct. =     -61.006133
siesta:       Kinetic =     773.432970
siesta:       Hartree =      87.032513
siesta:       Eldau   =       0.000000
siesta:       Eso     =       0.000000
siesta:    Ext. field =       0.000000
siesta:   Exch.-corr. =    -408.722795
siesta:  Ion-electron =    -819.588165
siesta:       Ion-ion =    -431.925217
siesta:       Ekinion =       0.000000
siesta:         Total =    -799.770693
siesta:         Fermi =      -5.405501

siesta: Stress tensor (static) (eV/Ang**3):
siesta:     0.050664   -0.000441   -0.000353
siesta:    -0.000441    0.050664   -0.000353
siesta:    -0.000353   -0.000353    0.052075

siesta: Cell volume =         11.819952 Ang**3

siesta: Pressure (static):
siesta:                Solid            Molecule  Units
siesta:          -0.00055692         -0.00055692  Ry/Bohr**3
siesta:          -0.05113442         -0.05113442  eV/Ang**3
siesta:         -81.92725793        -81.92725793  kBar
(Free)E+ p_basis*V_orbitals  =        -799.174835
(Free)Eharris+ p_basis*V_orbitals  =        -799.174837

siesta: Total spin polarization (Qup-Qdown) =    2.299438
>> End of run:   8-AUG-2017   9:36:52
