
                           ***********************       
                           *  WELCOME TO SIESTA  *       
                           ***********************       

reinit: Reading from standard input
reinit: Dumped input in INPUT_TMP.04451
************************** Dump of input data file ****************************
SystemName       bcc Fe ferro GGA   # Descriptive name of the system
SystemLabel            Fe           # Short name for naming files
# Species and atoms
NumberOfSpecies        1
NumberOfAtoms          1
%block ChemicalSpeciesLabel
  1  26  Fe
%endblock ChemicalSpeciesLabel
# Basis
PAO.BasisSize         DZP
# Lattice and geometry
LatticeConstant       2.87 Ang
%block LatticeVectors
 1.00000   0.000000  0.000000
 0.00000   1.000000  0.000000
 0.50000   0.500000  0.500000
%endblock LatticeVectors
# Atomic coordinates
AtomicCoordinatesFormat     ScaledCartesian
%block AtomicCoordinatesAndAtomicSpecies
  0.000000000000    0.000000000000    0.000000000000  1
%endblock AtomicCoordinatesAndAtomicSpecies
KgridCutoff          15. Ang
# SCF options
DM.MixingWeight       0.1           # New DM amount for next SCF cycle
DM.Tolerance          1.d-3         # Tolerance in maximum difference
DM.NumberPulay         3
SolutionMethod        diagon        # OrderN or Diagon
ElectronicTemperature  25 meV       # Temp. for Fermi smearing
xc.functional         GGA           # Exchange-correlation functional
xc.authors            PBE           # Exchange-correlation version
SpinPolarized         true          # Logical parameters are: yes or no
MeshCutoff           2000. Ry        # Mesh cutoff. real space mesh
# Output options
CDF.Save              true
WriteDMHS.NetCDF      true
SaveHS                true
************************** End of input data file *****************************

reinit: -----------------------------------------------------------------------
reinit: System Name: bcc Fe ferro GGA
reinit: -----------------------------------------------------------------------
reinit: System Label: Fe
reinit: -----------------------------------------------------------------------
Siesta Version: siesta-4.1--719
Architecture  : x86_64-unknown-linux-gnu--Gfortran
Compiler flags: mpif90 -g -O2
PP flags      : -DMPI -DFC_HAVE_FLUSH -DFC_HAVE_ABORT -DCDF -DGRID_DP -DPHI_GRID_SP -DNCDF -DNCDF_4
Libraries     : -lnetcdff -lnetcdf -lpthread -lscalapack -lblacsF77init-openmpi -lblacsCinit-openmpi -lblacs-openmpi /usr/lib/lapack/liblapack.a -lblas
PARALLEL version
NetCDF support
NetCDF-4 support

* Running on 4 nodes in parallel
>> Start of run:   8-AUG-2017  14:46:09

initatom: Reading input for the pseudopotentials and atomic orbitals ----------
Species number:   1 Atomic number:   26 Label: Fe

Ground state valence configuration:   4s02  3d06
Reading pseudopotential information in formatted form from Fe.psf

Pseudopotential generated from a relativistic atomic calculation
There are spin-orbit pseudopotentials available
Spin-orbit interaction is not included in this calculation

Valence configuration for pseudopotential generation:
4s( 1.00) rc: 2.00
4p( 0.00) rc: 2.00
3d( 7.00) rc: 2.00
4f( 0.00) rc: 2.00
For Fe, standard SIESTA heuristics set lmxkb to 3
 (one more than the basis l, including polarization orbitals).
Use PS.lmax or PS.KBprojectors blocks to override.

<basis_specs>
===============================================================================
Fe                   Z=  26    Mass=  55.850        Charge= 0.17977+309
Lmxo=2 Lmxkb= 3    BasisType=split      Semic=F
L=0  Nsemic=0  Cnfigmx=4
          n=1  nzeta=2  polorb=1
            splnorm:   0.15000    
               vcte:    0.0000    
               rinn:    0.0000    
               qcoe:    0.0000    
               qyuk:    0.0000    
               qwid:   0.10000E-01
                rcs:    0.0000      0.0000    
            lambdas:    1.0000      1.0000    
L=1  Nsemic=0  Cnfigmx=4
L=2  Nsemic=0  Cnfigmx=3
          n=1  nzeta=2  polorb=0
            splnorm:   0.15000    
               vcte:    0.0000    
               rinn:    0.0000    
               qcoe:    0.0000    
               qyuk:    0.0000    
               qwid:   0.10000E-01
                rcs:    0.0000      0.0000    
            lambdas:    1.0000      1.0000    
-------------------------------------------------------------------------------
L=0  Nkbl=1  erefs: 0.17977+309
L=1  Nkbl=1  erefs: 0.17977+309
L=2  Nkbl=1  erefs: 0.17977+309
L=3  Nkbl=1  erefs: 0.17977+309
===============================================================================
</basis_specs>

atom: Called for Fe                    (Z =  26)

read_vps: Pseudopotential generation method:
read_vps: ATM3      Troullier-Martins                       
Total valence charge:    8.00000

read_vps: Pseudopotential includes a core correction:
read_vps: Pseudo-core for xc-correction

xc_check: Exchange-correlation functional:
xc_check: GGA Perdew, Burke & Ernzerhof 1996
V l=0 = -2*Zval/r beyond r=  2.7993
V l=1 = -2*Zval/r beyond r=  2.7993
V l=2 = -2*Zval/r beyond r=  2.7993
V l=3 = -2*Zval/r beyond r=  2.7993
All V_l potentials equal beyond r=  1.9726
This should be close to max(r_c) in ps generation
All pots = -2*Zval/r beyond r=  2.7993
Using large-core scheme for Vlocal

atom: Estimated core radius    2.79930
atom: Maximum radius for 4*pi*r*r*local-pseudopot. charge    3.09372
atom: Maximum radius for r*vlocal+2*Zval:    2.83451
GHOST: No ghost state for L =  0
GHOST: No ghost state for L =  1
GHOST: No ghost state for L =  2
GHOST: No ghost state for L =  3

KBgen: Kleinman-Bylander projectors: 
   l= 0   rc=  2.047986   el= -0.311923   Ekb=  4.029271   kbcos=  0.247383
   l= 1   rc=  2.047986   el= -0.063743   Ekb=  3.155950   kbcos=  0.157501
   l= 2   rc=  2.022544   el= -0.281111   Ekb=-12.350059   kbcos= -0.653351
   l= 3   rc=  2.047986   el=  0.003178   Ekb= -1.600425   kbcos= -0.005940

KBgen: Total number of  Kleinman-Bylander projectors:   16
atom: -------------------------------------------------------------------------

atom: SANKEY-TYPE ORBITALS:
atom: Selected multiple-zeta basis: split     

SPLIT: Orbitals with angular momentum L= 0

SPLIT: Basis orbitals for state 4s

SPLIT: PAO cut-off radius determined from an
SPLIT: energy shift=  0.020000 Ry

   izeta = 1
                 lambda =    1.000000
                     rc =    6.799774
                 energy =   -0.294010
                kinetic =    0.301388
    potential(screened) =   -0.595398
       potential(ionic) =   -5.854038

   izeta = 2
                 rmatch =    6.387791
              splitnorm =    0.150000
                 energy =   -0.248820
                kinetic =    0.450170
    potential(screened) =   -0.698990
       potential(ionic) =   -6.319130

SPLIT: Orbitals with angular momentum L= 2

SPLIT: Basis orbitals for state 3d

SPLIT: PAO cut-off radius determined from an
SPLIT: energy shift=  0.020000 Ry

   izeta = 1
                 lambda =    1.000000
                     rc =    4.124234
                 energy =   -0.262775
                kinetic =    8.883013
    potential(screened) =   -9.145788
       potential(ionic) =  -18.099999

   izeta = 2
                 rmatch =    2.320685
              splitnorm =    0.150000
                 energy =    0.078117
                kinetic =   12.159866
    potential(screened) =  -12.081749
       potential(ionic) =  -21.731850

POLgen: Perturbative polarization orbital with L=  1

POLgen: Polarization orbital for state 4s

   izeta = 1
                     rc =    6.799774
                 energy =    0.008088
                kinetic =    0.570121
    potential(screened) =   -0.562033
       potential(ionic) =   -5.421934
atom: Total number of Sankey-type orbitals: 15

atm_pop: Valence configuration (for local Pseudopot. screening):
 4s( 2.00)                                                            
 4p( 0.00)                                                            
 3d( 6.00)                                                            
Vna: chval, zval:    8.00000   8.00000

Vna:  Cut-off radius for the neutral-atom potential:   6.799774
comcore: Pseudo-core radius Rcore=  3.826224

atom: _________________________________________________________________________

prinput: Basis input ----------------------------------------------------------

PAO.BasisType split     

%block ChemicalSpeciesLabel
    1   26 Fe                      # Species index, atomic number, species label
%endblock ChemicalSpeciesLabel

%block PAO.Basis                 # Define Basis set
Fe                    2                    # Species label, number of l-shells
 n=4   0   2 P   1                   # n, l, Nzeta, Polarization, NzetaPol
   6.800      6.388   
   1.000      1.000   
 n=3   2   2                         # n, l, Nzeta 
   4.124      2.321   
   1.000      1.000   
%endblock PAO.Basis

prinput: ----------------------------------------------------------------------

Dumping basis to NetCDF file Fe.ion.nc
coor:   Atomic-coordinates input format  =     Cartesian coordinates
coor:                                          (in units of alat)

siesta: Atomic coordinates (Bohr) and species
siesta:      0.00000   0.00000   0.00000  1        1

siesta: System type = bulk      

initatomlists: Number of atoms, orbitals, and projectors:      1    15    16

siesta: ******************** Simulation parameters ****************************
siesta:
siesta: The following are some of the parameters of the simulation.
siesta: A complete list of the parameters used, including default values,
siesta: can be found in file out.fdf
siesta:
redata: Spin configuration                          = collinear
redata: Number of spin components                   = 2
redata: Time-Reversal Symmetry                      = T
redata: Spin-spiral                                 = F
redata: Long output                                 =   F
redata: Number of Atomic Species                    =        1
redata: Charge density info will appear in .RHO file
redata: Write Mulliken Pop.                         = NO
redata: Mesh Cutoff                                 =  2000.0000 Ry
redata: Net charge of the system                    =     0.0000 |e|
redata: Min. number of SCF Iter                     =        0
redata: Max. number of SCF Iter                     =       50
redata: SCF mix quantity                            = Hamiltonian
redata: Mix DM or H after convergence               =   F
redata: Recompute H after scf cycle                 =   F
redata: Mix DM in first SCF step                    =   T
redata: Write Pulay info on disk                    =   F
redata: New DM Mixing Weight                        =     0.1000
redata: New DM Occupancy tolerance                  = 0.000000000001
redata: No kicks to SCF
redata: DM Mixing Weight for Kicks                  =     0.5000
redata: Require Harris convergence for SCF          =   F
redata: Harris energy tolerance for SCF             =     0.000100 eV
redata: Require DM convergence for SCF              =   T
redata: DM tolerance for SCF                        =     0.0010
redata: Require EDM convergence for SCF             =   F
redata: EDM tolerance for SCF                       =     0.001000 eV
redata: Require H convergence for SCF               =   T
redata: Hamiltonian tolerance for SCF               =     0.001000 eV
redata: Require (free) Energy convergence for SCF   =   F
redata: (free) Energy tolerance for SCF             =     0.000100 eV
redata: Antiferro initial spin density              =   F
redata: Using Saved Data (generic)                  =   F
redata: Use continuation files for DM               =   F
redata: Neglect nonoverlap interactions             =   F
redata: Method of Calculation                       = Diagonalization
redata: Divide and Conquer                          =   T
redata: Electronic Temperature                      =   290.1109 K
redata: Fix the spin of the system                  =   F
redata: Dynamics option                             = Single-point calculation
mix.SCF: Pulay mixing                            = Pulay
mix.SCF:    Variant                              = stable
mix.SCF:    History steps                        = 3
mix.SCF:    Linear mixing weight                 =     0.100000
mix.SCF:    Mixing weight                        =     0.100000
mix.SCF:    SVD condition                        = 0.1000E-07
mix.SCF: Spin-component mixing                   all
redata: Save all siesta data in one NC              =   T
redata: NC compression level                        =        0
redata: ***********************************************************************

%block SCF.Mixers
  Pulay
%endblock SCF.Mixers

%block SCF.Mixer.Pulay
  # Mixing method
  method pulay
  variant stable

  # Mixing options
  weight 0.1000
  weight.linear 0.1000
  history 3
%endblock SCF.Mixer.Pulay

DM_history_depth set to one: no extrapolation allowed by default for geometry relaxation
Size of DM history Fstack: 1
Total number of electrons:     8.000000
Total ionic charge:     8.000000

* ProcessorY, Blocksize:    2   4


* Orbital distribution balance (max,min):     4     3

 Kpoints in:         1183 . Kpoints trimmed:         1099

siesta: k-grid: Number of k-points =  1099
siesta: k-grid: Cutoff (effective) =    16.156 Ang
siesta: k-grid: Supercell and displacements
siesta: k-grid:  -13 -13  13      0.000
siesta: k-grid:  -13   0  13      0.000
siesta: k-grid:    0   0  13      0.000

superc: Internal auxiliary supercell:     9 x     9 x     9  =     729
superc: Number of atoms, orbitals, and projectors:    729  10935  11664


                     ====================================
                        Single-point calculation
                     ====================================

superc: Internal auxiliary supercell:     9 x     9 x     9  =     729
superc: Number of atoms, orbitals, and projectors:    729  10935  11664

outcell: Unit cell vectors (Ang):
        2.870000    0.000000    0.000000
        0.000000    2.870000    0.000000
        1.435000    1.435000    1.435000

outcell: Cell vector modules (Ang)   :    2.870000    2.870000    2.485493
outcell: Cell angles (23,13,12) (deg):     54.7356     54.7356     90.0000
outcell: Cell volume (Ang**3)        :     11.8200
<dSpData1D:S at geom step 0
  <sparsity:sparsity for geom step 0
    nrows_g=15 nrows=4 sparsity=21.9556 nnzs=4940, refcount: 7>
  <dData1D:(new from dSpData1D) n=4940, refcount: 1>
refcount: 1>
new_DM -- step:     1
Initializing Density Matrix...
DM filled with atomic data:
<dSpData2D:DM initialized from atoms
  <sparsity:sparsity for geom step 0
    nrows_g=15 nrows=4 sparsity=21.9556 nnzs=4940, refcount: 8>
  <dData2D:DM n=4940 m=2, refcount: 1>
refcount: 1>

initDM: Initial spin polarization (Qup-Qdown) =    4.000000

No. of atoms with KB's overlaping orbs in proc 0. Max # of overlaps:      27     215
New grid distribution:   1
           1       1:   36    1:   18    1:   13
           2       1:   36    1:   18   14:   25
           3       1:   36   19:   36    1:   13
           4       1:   36   19:   36   14:   25

InitMesh: MESH =    72 x    72 x    50 =      259200
InitMesh: (bp) =    36 x    36 x    25 =       32400
InitMesh: Mesh cutoff (required, used) =  2000.000  2002.473 Ry
ExtMesh (bp) on 0 =   292 x   274 x   265 =    21202120
New grid distribution:   2
           1       1:   18    1:   18    1:   25
           2      19:   36    1:   18    1:   25
           3       1:   18   19:   36    1:   25
           4      19:   36   19:   36    1:   25
New grid distribution:   3
           1       1:   18    1:   18    1:   25
           2      19:   36    1:   18    1:   25
           3       1:   18   19:   36    1:   25
           4      19:   36   19:   36    1:   25
Setting up quadratic distribution...
ExtMesh (bp) on 0 =   274 x   274 x   277 =    20796052
PhiOnMesh: Number of (b)points on node 0 =                 8100
PhiOnMesh: nlist on node 0 =               847837

stepf: Fermi-Dirac step function

siesta: Program's energy decomposition (eV):
siesta: Ebs     =       -72.959400
siesta: Eions   =       713.089645
siesta: Ena     =        26.541896
siesta: Ekin    =       808.005857
siesta: Enl     =      -500.099838
siesta: Eso     =         0.000000
siesta: Eldau   =         0.000000
siesta: DEna    =        -8.600854
siesta: DUscf   =         0.883319
siesta: DUext   =         0.000000
siesta: Exc     =      -409.607558
siesta: eta*DQ  =         0.000000
siesta: Emadel  =         0.000000
siesta: Emeta   =         0.000000
siesta: Emolmec =         0.000000
siesta: Ekinion =         0.000000
siesta: Eharris =      -794.305591
siesta: Etot    =      -795.966824
siesta: FreeEng =      -795.969051

        iscf     Eharris(eV)        E_KS(eV)     FreeEng(eV)     dDmax    Ef(eV) dHmax(eV)
   scf:    1     -794.305591     -795.966824     -795.969051  0.900679 -8.612183  4.102754
timer: Routine,Calls,Time,% = IterSCF        1       7.148  36.29
   scf:    2     -796.363480     -796.175284     -796.177451  0.019221 -8.453239  3.084562
   scf:    3     -796.517858     -796.421966     -796.423662  0.047442 -8.032406  0.387295
   scf:    4     -796.457288     -796.437812     -796.440040  0.021400 -8.308381  0.091870
   scf:    5     -796.447568     -796.442069     -796.444106  0.010560 -8.308167  0.091206
   scf:    6     -796.439997     -796.440988     -796.443154  0.002713 -8.307887  0.098574
   scf:    7     -796.448013     -796.444054     -796.445815  0.007945 -8.312121  0.047637
   scf:    8     -796.444365     -796.444207     -796.445974  0.000576 -8.310441  0.042295
   scf:    9     -796.446456     -796.444846     -796.446906  0.007448 -8.302834  0.013265
   scf:   10     -796.444827     -796.444820     -796.446915  0.001408 -8.305936  0.006062
   scf:   11     -796.444849     -796.444833     -796.446918  0.000394 -8.305515  0.005010
   scf:   12     -796.444881     -796.444853     -796.446916  0.000862 -8.306043  0.002974
   scf:   13     -796.444853     -796.444853     -796.446917  0.000048 -8.306338  0.002470
   scf:   14     -796.444849     -796.444851     -796.446919  0.000157 -8.306621  0.002113
   scf:   15     -796.444840     -796.444845     -796.446921  0.000285 -8.306756  0.001118
   scf:   16     -796.444842     -796.444843     -796.446921  0.000051 -8.306708  0.001042
   scf:   17     -796.444843     -796.444843     -796.446921  0.000030 -8.306429  0.000593

SCF Convergence by DM+H criterion
max |DM_out - DM_in|         :     0.0000296596
max |H_out - H_in|      (eV) :     0.0005931085
SCF cycle converged after 17 iterations

Using DM_out to compute the final energy and forces
No. of atoms with KB's overlaping orbs in proc 0. Max # of overlaps:      27     215

siesta: E_KS(eV) =             -796.4448

siesta: E_KS - E_eggbox =      -796.4448

siesta: Atomic forces (eV/Ang):
----------------------------------------
   Tot    0.000000   -0.000000   -0.000000
----------------------------------------
   Max    0.000000
   Res    0.000000    sqrt( Sum f_i^2 / 3N )
----------------------------------------
   Max    0.000000    constrained

Stress-tensor-Voigt (kbar):      -54.40      -54.40      -55.04       -0.12        0.04        0.04
(Free)E + p*V (eV/cell)     -796.0440
Target enthalpy (eV/cell)     -796.4469

siesta: Program's energy decomposition (eV):
siesta: Ebs     =       -84.387280
siesta: Eions   =       713.089645
siesta: Ena     =        26.541896
siesta: Ekin    =       769.214066
siesta: Enl     =      -471.919510
siesta: Eso     =         0.000000
siesta: Eldau   =         0.000000
siesta: DEna    =        -3.110991
siesta: DUscf   =         0.132483
siesta: DUext   =         0.000000
siesta: Exc     =      -404.213142
siesta: eta*DQ  =         0.000000
siesta: Emadel  =         0.000000
siesta: Emeta   =         0.000000
siesta: Emolmec =         0.000000
siesta: Ekinion =         0.000000
siesta: Eharris =      -796.444843
siesta: Etot    =      -796.444843
siesta: FreeEng =      -796.446921

siesta: Final energy (eV):
siesta:  Band Struct. =     -84.387280
siesta:       Kinetic =     769.214066
siesta:       Hartree =      86.688587
siesta:       Eldau   =       0.000000
siesta:       Eso     =       0.000000
siesta:    Ext. field =       0.000000
siesta:   Exch.-corr. =    -404.213142
siesta:  Ion-electron =    -838.220083
siesta:       Ion-ion =    -409.914271
siesta:       Ekinion =       0.000000
siesta:         Total =    -796.444843
siesta:         Fermi =      -8.306429

siesta: Stress tensor (static) (eV/Ang**3):
siesta:    -0.033951   -0.000076    0.000025
siesta:    -0.000076   -0.033951    0.000025
siesta:     0.000025    0.000025   -0.034356

siesta: Cell volume =         11.819952 Ang**3

siesta: Pressure (static):
siesta:                Solid            Molecule  Units
siesta:           0.00037124          0.00037124  Ry/Bohr**3
siesta:           0.03408611          0.03408611  eV/Ang**3
siesta:          54.61256040         54.61256040  kBar
(Free)E+ p_basis*V_orbitals  =        -795.693712
(Free)Eharris+ p_basis*V_orbitals  =        -795.693711

siesta: Total spin polarization (Qup-Qdown) =    2.390215
>> End of run:   8-AUG-2017  14:48:03
