
                           ***********************       
                           *  WELCOME TO SIESTA  *       
                           ***********************       

reinit: Reading from standard input
reinit: Dumped input in INPUT_TMP.90902
************************** Dump of input data file ****************************
SystemName       bcc Fe ferro GGA   # Descriptive name of the system
SystemLabel            Fe           # Short name for naming files
# Species and atoms
NumberOfSpecies        1
NumberOfAtoms          1
%block ChemicalSpeciesLabel
  1  26  Fe
%endblock ChemicalSpeciesLabel
# Basis
PAO.BasisSize         DZP
# Lattice and geometry
LatticeConstant       2.87 Ang
%block LatticeVectors
 1.00000   0.000000  0.000000
 0.00000   1.000000  0.000000
 0.50000   0.500000  0.500000
%endblock LatticeVectors
# Atomic coordinates
AtomicCoordinatesFormat     ScaledCartesian
%block AtomicCoordinatesAndAtomicSpecies
  0.000000000000    0.000000000000    0.000000000000  1
%endblock AtomicCoordinatesAndAtomicSpecies
KgridCutoff          15. Ang
# SCF options
DM.MixingWeight       0.1           # New DM amount for next SCF cycle
DM.Tolerance          1.d-3         # Tolerance in maximum difference
DM.NumberPulay         3
SolutionMethod        diagon        # OrderN or Diagon
ElectronicTemperature  25 meV       # Temp. for Fermi smearing
xc.functional         GGA           # Exchange-correlation functional
xc.authors            PBE           # Exchange-correlation version
SpinPolarized         true          # Logical parameters are: yes or no
MeshCutoff           2000. Ry        # Mesh cutoff. real space mesh
# Output options
CDF.Save              true
WriteDMHS.NetCDF      true
SaveHS                true
************************** End of input data file *****************************

reinit: -----------------------------------------------------------------------
reinit: System Name: bcc Fe ferro GGA
reinit: -----------------------------------------------------------------------
reinit: System Label: Fe
reinit: -----------------------------------------------------------------------
Siesta Version: siesta-4.1--719
Architecture  : x86_64-unknown-linux-gnu--Gfortran
Compiler flags: mpif90 -g -O2
PP flags      : -DMPI -DFC_HAVE_FLUSH -DFC_HAVE_ABORT -DCDF -DGRID_DP -DPHI_GRID_SP -DNCDF -DNCDF_4
Libraries     : -lnetcdff -lnetcdf -lpthread -lscalapack -lblacsF77init-openmpi -lblacsCinit-openmpi -lblacs-openmpi /usr/lib/lapack/liblapack.a -lblas
PARALLEL version
NetCDF support
NetCDF-4 support

* Running on 4 nodes in parallel
>> Start of run:  28-JUL-2017  12:05:39

initatom: Reading input for the pseudopotentials and atomic orbitals ----------
Species number:   1 Atomic number:   26 Label: Fe

Ground state valence configuration:   4s02  3d06
Reading pseudopotential information in formatted form from Fe.psf

Pseudopotential generated from a relativistic atomic calculation
There are spin-orbit pseudopotentials available
Spin-orbit interaction is not included in this calculation

Valence configuration for pseudopotential generation:
4s( 2.00) rc: 2.00
4p( 0.00) rc: 2.00
3d( 6.00) rc: 2.00
4f( 0.00) rc: 2.00
For Fe, standard SIESTA heuristics set lmxkb to 3
 (one more than the basis l, including polarization orbitals).
Use PS.lmax or PS.KBprojectors blocks to override.

<basis_specs>
===============================================================================
Fe                   Z=  26    Mass=  55.850        Charge= 0.17977+309
Lmxo=2 Lmxkb= 3    BasisType=split      Semic=F
L=0  Nsemic=0  Cnfigmx=4
          n=1  nzeta=2  polorb=1
            splnorm:   0.15000    
               vcte:    0.0000    
               rinn:    0.0000    
               qcoe:    0.0000    
               qyuk:    0.0000    
               qwid:   0.10000E-01
                rcs:    0.0000      0.0000    
            lambdas:    1.0000      1.0000    
L=1  Nsemic=0  Cnfigmx=4
L=2  Nsemic=0  Cnfigmx=3
          n=1  nzeta=2  polorb=0
            splnorm:   0.15000    
               vcte:    0.0000    
               rinn:    0.0000    
               qcoe:    0.0000    
               qyuk:    0.0000    
               qwid:   0.10000E-01
                rcs:    0.0000      0.0000    
            lambdas:    1.0000      1.0000    
-------------------------------------------------------------------------------
L=0  Nkbl=1  erefs: 0.17977+309
L=1  Nkbl=1  erefs: 0.17977+309
L=2  Nkbl=1  erefs: 0.17977+309
L=3  Nkbl=1  erefs: 0.17977+309
===============================================================================
</basis_specs>

atom: Called for Fe                    (Z =  26)

read_vps: Pseudopotential generation method:
read_vps: ATM3      Troullier-Martins                       
Total valence charge:    8.00000

read_vps: Pseudopotential includes a core correction:
read_vps: Pseudo-core for xc-correction

xc_check: Exchange-correlation functional:
xc_check: GGA Perdew, Burke & Ernzerhof 1996
V l=0 = -2*Zval/r beyond r=  2.7645
V l=1 = -2*Zval/r beyond r=  2.7645
V l=2 = -2*Zval/r beyond r=  2.7645
V l=3 = -2*Zval/r beyond r=  2.7645
All V_l potentials equal beyond r=  1.9726
This should be close to max(r_c) in ps generation
All pots = -2*Zval/r beyond r=  2.7645
Using large-core scheme for Vlocal

atom: Estimated core radius    2.76453
atom: Maximum radius for 4*pi*r*r*local-pseudopot. charge    3.05528
atom: Maximum radius for r*vlocal+2*Zval:    2.79930
GHOST: No ghost state for L =  0
GHOST: No ghost state for L =  1
GHOST: No ghost state for L =  2
GHOST: No ghost state for L =  3

KBgen: Kleinman-Bylander projectors: 
   l= 0   rc=  2.047986   el= -0.388305   Ekb=  4.259322   kbcos=  0.262992
   l= 1   rc=  2.047986   el= -0.097543   Ekb=  2.850785   kbcos=  0.194191
   l= 2   rc=  2.022544   el= -0.553240   Ekb=-12.567334   kbcos= -0.683368
   l= 3   rc=  2.047986   el=  0.003178   Ekb= -1.649997   kbcos= -0.006611

KBgen: Total number of  Kleinman-Bylander projectors:   16
atom: -------------------------------------------------------------------------

atom: SANKEY-TYPE ORBITALS:
atom: Selected multiple-zeta basis: split     

SPLIT: Orbitals with angular momentum L= 0

SPLIT: Basis orbitals for state 4s

SPLIT: PAO cut-off radius determined from an
SPLIT: energy shift=  0.020000 Ry

   izeta = 1
                 lambda =    1.000000
                     rc =    6.308440
                 energy =   -0.368145
                kinetic =    0.348842
    potential(screened) =   -0.716987
       potential(ionic) =   -6.129340

   izeta = 2
                 rmatch =    5.926225
              splitnorm =    0.150000
                 energy =   -0.314432
                kinetic =    0.521394
    potential(screened) =   -0.835826
       potential(ionic) =   -6.581555

SPLIT: Orbitals with angular momentum L= 2

SPLIT: Basis orbitals for state 3d

SPLIT: PAO cut-off radius determined from an
SPLIT: energy shift=  0.020000 Ry

   izeta = 1
                 lambda =    1.000000
                     rc =    3.731752
                 energy =   -0.535586
                kinetic =    9.598648
    potential(screened) =  -10.134233
       potential(ionic) =  -18.975344

   izeta = 2
                 rmatch =    2.126247
              splitnorm =    0.150000
                 energy =   -0.064651
                kinetic =   13.267357
    potential(screened) =  -13.332008
       potential(ionic) =  -22.743777

POLgen: Perturbative polarization orbital with L=  1

POLgen: Polarization orbital for state 4s

   izeta = 1
                     rc =    6.308440
                 energy =   -0.029040
                kinetic =    0.656471
    potential(screened) =   -0.685511
       potential(ionic) =   -5.738393
atom: Total number of Sankey-type orbitals: 15

atm_pop: Valence configuration (for local Pseudopot. screening):
 4s( 2.00)                                                            
 4p( 0.00)                                                            
 3d( 6.00)                                                            
Vna: chval, zval:    8.00000   8.00000

Vna:  Cut-off radius for the neutral-atom potential:   6.308440
comcore: Pseudo-core radius Rcore=  3.778693

atom: _________________________________________________________________________

prinput: Basis input ----------------------------------------------------------

PAO.BasisType split     

%block ChemicalSpeciesLabel
    1   26 Fe                      # Species index, atomic number, species label
%endblock ChemicalSpeciesLabel

%block PAO.Basis                 # Define Basis set
Fe                    2                    # Species label, number of l-shells
 n=4   0   2 P   1                   # n, l, Nzeta, Polarization, NzetaPol
   6.308      5.926   
   1.000      1.000   
 n=3   2   2                         # n, l, Nzeta 
   3.732      2.126   
   1.000      1.000   
%endblock PAO.Basis

prinput: ----------------------------------------------------------------------

Dumping basis to NetCDF file Fe.ion.nc
coor:   Atomic-coordinates input format  =     Cartesian coordinates
coor:                                          (in units of alat)

siesta: Atomic coordinates (Bohr) and species
siesta:      0.00000   0.00000   0.00000  1        1

siesta: System type = bulk      

initatomlists: Number of atoms, orbitals, and projectors:      1    15    16

siesta: ******************** Simulation parameters ****************************
siesta:
siesta: The following are some of the parameters of the simulation.
siesta: A complete list of the parameters used, including default values,
siesta: can be found in file out.fdf
siesta:
redata: Spin configuration                          = collinear
redata: Number of spin components                   = 2
redata: Time-Reversal Symmetry                      = T
redata: Spin-spiral                                 = F
redata: Long output                                 =   F
redata: Number of Atomic Species                    =        1
redata: Charge density info will appear in .RHO file
redata: Write Mulliken Pop.                         = NO
redata: Mesh Cutoff                                 =  2000.0000 Ry
redata: Net charge of the system                    =     0.0000 |e|
redata: Min. number of SCF Iter                     =        0
redata: Max. number of SCF Iter                     =       50
redata: SCF mix quantity                            = Hamiltonian
redata: Mix DM or H after convergence               =   F
redata: Recompute H after scf cycle                 =   F
redata: Mix DM in first SCF step                    =   T
redata: Write Pulay info on disk                    =   F
redata: New DM Mixing Weight                        =     0.1000
redata: New DM Occupancy tolerance                  = 0.000000000001
redata: No kicks to SCF
redata: DM Mixing Weight for Kicks                  =     0.5000
redata: Require Harris convergence for SCF          =   F
redata: Harris energy tolerance for SCF             =     0.000100 eV
redata: Require DM convergence for SCF              =   T
redata: DM tolerance for SCF                        =     0.0010
redata: Require EDM convergence for SCF             =   F
redata: EDM tolerance for SCF                       =     0.001000 eV
redata: Require H convergence for SCF               =   T
redata: Hamiltonian tolerance for SCF               =     0.001000 eV
redata: Require (free) Energy convergence for SCF   =   F
redata: (free) Energy tolerance for SCF             =     0.000100 eV
redata: Antiferro initial spin density              =   F
redata: Using Saved Data (generic)                  =   F
redata: Use continuation files for DM               =   F
redata: Neglect nonoverlap interactions             =   F
redata: Method of Calculation                       = Diagonalization
redata: Divide and Conquer                          =   T
redata: Electronic Temperature                      =   290.1109 K
redata: Fix the spin of the system                  =   F
redata: Dynamics option                             = Single-point calculation
mix.SCF: Pulay mixing                            = Pulay
mix.SCF:    Variant                              = stable
mix.SCF:    History steps                        = 3
mix.SCF:    Linear mixing weight                 =     0.100000
mix.SCF:    Mixing weight                        =     0.100000
mix.SCF:    SVD condition                        = 0.1000E-07
mix.SCF: Spin-component mixing                   all
redata: Save all siesta data in one NC              =   T
redata: NC compression level                        =        0
redata: ***********************************************************************

%block SCF.Mixers
  Pulay
%endblock SCF.Mixers

%block SCF.Mixer.Pulay
  # Mixing method
  method pulay
  variant stable

  # Mixing options
  weight 0.1000
  weight.linear 0.1000
  history 3
%endblock SCF.Mixer.Pulay

DM_history_depth set to one: no extrapolation allowed by default for geometry relaxation
Size of DM history Fstack: 1
Total number of electrons:     8.000000
Total ionic charge:     8.000000

* ProcessorY, Blocksize:    2   4


* Orbital distribution balance (max,min):     4     3

 Kpoints in:         1183 . Kpoints trimmed:         1099

siesta: k-grid: Number of k-points =  1099
siesta: k-grid: Cutoff (effective) =    16.156 Ang
siesta: k-grid: Supercell and displacements
siesta: k-grid:  -13 -13  13      0.000
siesta: k-grid:  -13   0  13      0.000
siesta: k-grid:    0   0  13      0.000

superc: Internal auxiliary supercell:     9 x     9 x     9  =     729
superc: Number of atoms, orbitals, and projectors:    729  10935  11664


                     ====================================
                        Single-point calculation
                     ====================================

superc: Internal auxiliary supercell:     9 x     9 x     9  =     729
superc: Number of atoms, orbitals, and projectors:    729  10935  11664

outcell: Unit cell vectors (Ang):
        2.870000    0.000000    0.000000
        0.000000    2.870000    0.000000
        1.435000    1.435000    1.435000

outcell: Cell vector modules (Ang)   :    2.870000    2.870000    2.485493
outcell: Cell angles (23,13,12) (deg):     54.7356     54.7356     90.0000
outcell: Cell volume (Ang**3)        :     11.8200
<dSpData1D:S at geom step 0
  <sparsity:sparsity for geom step 0
    nrows_g=15 nrows=4 sparsity=21.4222 nnzs=4820, refcount: 7>
  <dData1D:(new from dSpData1D) n=4820, refcount: 1>
refcount: 1>
new_DM -- step:     1
Initializing Density Matrix...
DM filled with atomic data:
<dSpData2D:DM initialized from atoms
  <sparsity:sparsity for geom step 0
    nrows_g=15 nrows=4 sparsity=21.4222 nnzs=4820, refcount: 8>
  <dData2D:DM n=4820 m=2, refcount: 1>
refcount: 1>

initDM: Initial spin polarization (Qup-Qdown) =    4.000000

No. of atoms with KB's overlaping orbs in proc 0. Max # of overlaps:      27     215
New grid distribution:   1
           1       1:   36    1:   18    1:   13
           2       1:   36    1:   18   14:   25
           3       1:   36   19:   36    1:   13
           4       1:   36   19:   36   14:   25

InitMesh: MESH =    72 x    72 x    50 =      259200
InitMesh: (bp) =    36 x    36 x    25 =       32400
InitMesh: Mesh cutoff (required, used) =  2000.000  2002.473 Ry
ExtMesh (bp) on 0 =   276 x   258 x   249 =    17730792
New grid distribution:   2
           1       1:   18    1:   18    1:   25
           2      19:   36    1:   18    1:   25
           3       1:   18   19:   36    1:   25
           4      19:   36   19:   36    1:   25
New grid distribution:   3
           1       1:   18    1:   18    1:   25
           2      19:   36    1:   18    1:   25
           3       1:   18   19:   36    1:   25
           4      19:   36   19:   36    1:   25
Setting up quadratic distribution...
ExtMesh (bp) on 0 =   258 x   258 x   261 =    17373204
PhiOnMesh: Number of (b)points on node 0 =                 8100
PhiOnMesh: nlist on node 0 =               676827

stepf: Fermi-Dirac step function

siesta: Program's energy decomposition (eV):
siesta: Ebs     =       -72.365863
siesta: Eions   =       711.951410
siesta: Ena     =        19.722469
siesta: Ekin    =       731.883040
siesta: Enl     =      -443.818051
siesta: Eso     =         0.000000
siesta: Eldau   =         0.000000
siesta: DEna    =         8.147376
siesta: DUscf   =         1.121852
siesta: DUext   =         0.000000
siesta: Exc     =      -386.031023
siesta: eta*DQ  =         0.000000
siesta: Emadel  =         0.000000
siesta: Emeta   =         0.000000
siesta: Emolmec =         0.000000
siesta: Ekinion =         0.000000
siesta: Eharris =      -781.143334
siesta: Etot    =      -780.925748
siesta: FreeEng =      -780.927588

        iscf     Eharris(eV)        E_KS(eV)     FreeEng(eV)     dDmax    Ef(eV) dHmax(eV)
   scf:    1     -781.143334     -780.925748     -780.927588  0.699487 -3.888350  4.982408
timer: Routine,Calls,Time,% = IterSCF        1       5.628  37.90
   scf:    2     -781.411103     -781.178879     -781.180785  0.028114 -4.213894  3.848865
   scf:    3     -781.695893     -781.566602     -781.568654  0.079356 -5.151609  0.711042
   scf:    4     -780.859119     -781.281970     -781.284323  0.058219 -5.568268  3.500221
   scf:    5     -781.744068     -781.597899     -781.600547  0.060166 -5.396027  0.129572
   scf:    6     -781.604702     -781.600948     -781.603515  0.008519 -5.408965  0.105084
   scf:    7     -781.603337     -781.602096     -781.604578  0.002953 -5.416132  0.078074
   scf:    8     -781.601238     -781.601658     -781.604245  0.001606 -5.415902  0.072507
   scf:    9     -781.602959     -781.602293     -781.604838  0.001614 -5.415452  0.067965
   scf:   10     -781.611209     -781.605919     -781.608187  0.011815 -5.403289  0.055685
   scf:   11     -781.607638     -781.606673     -781.608874  0.004314 -5.400641  0.048030
   scf:   12     -781.607695     -781.607112     -781.609238  0.003484 -5.398445  0.031323
   scf:   13     -781.607183     -781.607147     -781.609273  0.000437 -5.400936  0.018836
   scf:   14     -781.607242     -781.607191     -781.609319  0.000709 -5.401297  0.011254
   scf:   15     -781.607397     -781.607248     -781.609400  0.002660 -5.397994  0.007764
   scf:   16     -781.607243     -781.607243     -781.609401  0.000477 -5.397481  0.006747
   scf:   17     -781.607256     -781.607249     -781.609406  0.000533 -5.397753  0.000717

SCF Convergence by DM+H criterion
max |DM_out - DM_in|         :     0.0005332150
max |H_out - H_in|      (eV) :     0.0007170086
SCF cycle converged after 17 iterations

Using DM_out to compute the final energy and forces
No. of atoms with KB's overlaping orbs in proc 0. Max # of overlaps:      27     215

siesta: E_KS(eV) =             -781.6072

siesta: E_KS - E_eggbox =      -781.6072

siesta: Atomic forces (eV/Ang):
----------------------------------------
   Tot   -0.000000   -0.000000   -0.000000
----------------------------------------
   Max    0.000000
   Res    0.000000    sqrt( Sum f_i^2 / 3N )
----------------------------------------
   Max    0.000000    constrained

Stress-tensor-Voigt (kbar):       87.69       87.69       89.95       -0.72       -0.55       -0.55
(Free)E + p*V (eV/cell)     -782.2619
Target enthalpy (eV/cell)     -781.6094

siesta: Program's energy decomposition (eV):
siesta: Ebs     =       -60.985462
siesta: Eions   =       711.951410
siesta: Ena     =        19.722469
siesta: Ekin    =       773.216159
siesta: Enl     =      -475.200681
siesta: Eso     =         0.000000
siesta: Eldau   =         0.000000
siesta: DEna    =         3.162169
siesta: DUscf   =         0.186041
siesta: DUext   =         0.000000
siesta: Exc     =      -390.741995
siesta: eta*DQ  =         0.000000
siesta: Emadel  =         0.000000
siesta: Emeta   =         0.000000
siesta: Emolmec =         0.000000
siesta: Ekinion =         0.000000
siesta: Eharris =      -781.607256
siesta: Etot    =      -781.607249
siesta: FreeEng =      -781.609406

siesta: Final energy (eV):
siesta:  Band Struct. =     -60.985462
siesta:       Kinetic =     773.216159
siesta:       Hartree =      86.991921
siesta:       Eldau   =       0.000000
siesta:       Eso     =       0.000000
siesta:    Ext. field =       0.000000
siesta:   Exch.-corr. =    -390.741995
siesta:  Ion-electron =    -819.148117
siesta:       Ion-ion =    -431.925217
siesta:       Ekinion =       0.000000
siesta:         Total =    -781.607249
siesta:         Fermi =      -5.397753

siesta: Stress tensor (static) (eV/Ang**3):
siesta:     0.054731   -0.000451   -0.000342
siesta:    -0.000451    0.054731   -0.000342
siesta:    -0.000342   -0.000342    0.056142

siesta: Cell volume =         11.819952 Ang**3

siesta: Pressure (static):
siesta:                Solid            Molecule  Units
siesta:          -0.00060122         -0.00060122  Ry/Bohr**3
siesta:          -0.05520167         -0.05520167  eV/Ang**3
siesta:         -88.44377844        -88.44377844  kBar
(Free)E+ p_basis*V_orbitals  =        -781.011379
(Free)Eharris+ p_basis*V_orbitals  =        -781.011386

siesta: Total spin polarization (Qup-Qdown) =    2.270971
>> End of run:  28-JUL-2017  12:07:17
