
                           ***********************       
                           *  WELCOME TO SIESTA  *       
                           ***********************       

reinit: Reading from standard input
reinit: Dumped input in INPUT_TMP.25533
************************** Dump of input data file ****************************
SystemName       bcc Fe ferro GGA   # Descriptive name of the system
SystemLabel            Fe           # Short name for naming files
# Species and atoms
NumberOfSpecies        1
NumberOfAtoms          8
%block ChemicalSpeciesLabel
  1  26  Fe
%endblock ChemicalSpeciesLabel
# Basis
PAO.BasisSize         DZP
# Lattice and geometry
LatticeConstant       2.87 Ang
%block LatticeVectors
 2.00000   0.000000  0.000000
 0.00000   2.000000  0.000000
 1.00000   1.000000  1.000000
%endblock LatticeVectors
# Atomic coordinates
AtomicCoordinatesFormat     ScaledCartesian
%block AtomicCoordinatesAndAtomicSpecies
  0.000000000000    0.000000000000    0.000000000000  1
  1.000000000000    0.000000000000    0.000000000000  1
  0.000000000000    1.000000000000    0.000000000000  1
  1.000000000000    1.000000000000    0.000000000000  1
  0.500000000000    0.500000000000    0.500000000000  1
  1.500000000000    0.500000000000    0.500000000000  1
  0.500000000000    1.500000000000    0.500000000000  1
  1.500000000000    1.500000000000    0.500000000000  1
%endblock AtomicCoordinatesAndAtomicSpecies
KgridCutoff          15. Ang
# SCF options
DM.MixingWeight       0.1           # New DM amount for next SCF cycle
DM.Tolerance          1.d-3         # Tolerance in maximum difference
DM.NumberPulay         3
SolutionMethod        diagon        # OrderN or Diagon
ElectronicTemperature  25 meV       # Temp. for Fermi smearing
xc.functional         GGA           # Exchange-correlation functional
xc.authors            PBE           # Exchange-correlation version
SpinPolarized         true          # Logical parameters are: yes or no
MeshCutoff           2000. Ry        # Mesh cutoff. real space mesh
# Output options
CDF.Save              true
WriteDMHS.NetCDF      true
SaveHS                true
************************** End of input data file *****************************

reinit: -----------------------------------------------------------------------
reinit: System Name: bcc Fe ferro GGA
reinit: -----------------------------------------------------------------------
reinit: System Label: Fe
reinit: -----------------------------------------------------------------------
Siesta Version: siesta-4.1--719
Architecture  : x86_64-unknown-linux-gnu--Gfortran
Compiler flags: mpif90 -g -O2
PP flags      : -DMPI -DFC_HAVE_FLUSH -DFC_HAVE_ABORT -DCDF -DGRID_DP -DPHI_GRID_SP -DNCDF -DNCDF_4
Libraries     : -lnetcdff -lnetcdf -lpthread -lscalapack -lblacsF77init-openmpi -lblacsCinit-openmpi -lblacs-openmpi /usr/lib/lapack/liblapack.a -lblas
PARALLEL version
NetCDF support
NetCDF-4 support

* Running on 4 nodes in parallel
>> Start of run:   8-AUG-2017  14:51:30

initatom: Reading input for the pseudopotentials and atomic orbitals ----------
Species number:   1 Atomic number:   26 Label: Fe

Ground state valence configuration:   4s02  3d06
Reading pseudopotential information in formatted form from Fe.psf

Pseudopotential generated from a relativistic atomic calculation
There are spin-orbit pseudopotentials available
Spin-orbit interaction is not included in this calculation

Valence configuration for pseudopotential generation:
4s( 1.00) rc: 2.00
4p( 0.00) rc: 2.00
3d( 7.00) rc: 2.00
4f( 0.00) rc: 2.00
For Fe, standard SIESTA heuristics set lmxkb to 3
 (one more than the basis l, including polarization orbitals).
Use PS.lmax or PS.KBprojectors blocks to override.

<basis_specs>
===============================================================================
Fe                   Z=  26    Mass=  55.850        Charge= 0.17977+309
Lmxo=2 Lmxkb= 3    BasisType=split      Semic=F
L=0  Nsemic=0  Cnfigmx=4
          n=1  nzeta=2  polorb=1
            splnorm:   0.15000    
               vcte:    0.0000    
               rinn:    0.0000    
               qcoe:    0.0000    
               qyuk:    0.0000    
               qwid:   0.10000E-01
                rcs:    0.0000      0.0000    
            lambdas:    1.0000      1.0000    
L=1  Nsemic=0  Cnfigmx=4
L=2  Nsemic=0  Cnfigmx=3
          n=1  nzeta=2  polorb=0
            splnorm:   0.15000    
               vcte:    0.0000    
               rinn:    0.0000    
               qcoe:    0.0000    
               qyuk:    0.0000    
               qwid:   0.10000E-01
                rcs:    0.0000      0.0000    
            lambdas:    1.0000      1.0000    
-------------------------------------------------------------------------------
L=0  Nkbl=1  erefs: 0.17977+309
L=1  Nkbl=1  erefs: 0.17977+309
L=2  Nkbl=1  erefs: 0.17977+309
L=3  Nkbl=1  erefs: 0.17977+309
===============================================================================
</basis_specs>

atom: Called for Fe                    (Z =  26)

read_vps: Pseudopotential generation method:
read_vps: ATM3      Troullier-Martins                       
Total valence charge:    8.00000

read_vps: Pseudopotential includes a core correction:
read_vps: Pseudo-core for xc-correction

xc_check: Exchange-correlation functional:
xc_check: GGA Perdew, Burke & Ernzerhof 1996
V l=0 = -2*Zval/r beyond r=  2.7993
V l=1 = -2*Zval/r beyond r=  2.7993
V l=2 = -2*Zval/r beyond r=  2.7993
V l=3 = -2*Zval/r beyond r=  2.7993
All V_l potentials equal beyond r=  1.9726
This should be close to max(r_c) in ps generation
All pots = -2*Zval/r beyond r=  2.7993
Using large-core scheme for Vlocal

atom: Estimated core radius    2.79930
atom: Maximum radius for 4*pi*r*r*local-pseudopot. charge    3.09372
atom: Maximum radius for r*vlocal+2*Zval:    2.83451
GHOST: No ghost state for L =  0
GHOST: No ghost state for L =  1
GHOST: No ghost state for L =  2
GHOST: No ghost state for L =  3

KBgen: Kleinman-Bylander projectors: 
   l= 0   rc=  2.047986   el= -0.311923   Ekb=  4.029271   kbcos=  0.247383
   l= 1   rc=  2.047986   el= -0.063743   Ekb=  3.155950   kbcos=  0.157501
   l= 2   rc=  2.022544   el= -0.281111   Ekb=-12.350059   kbcos= -0.653351
   l= 3   rc=  2.047986   el=  0.003178   Ekb= -1.600425   kbcos= -0.005940

KBgen: Total number of  Kleinman-Bylander projectors:   16
atom: -------------------------------------------------------------------------

atom: SANKEY-TYPE ORBITALS:
atom: Selected multiple-zeta basis: split     

SPLIT: Orbitals with angular momentum L= 0

SPLIT: Basis orbitals for state 4s

SPLIT: PAO cut-off radius determined from an
SPLIT: energy shift=  0.020000 Ry

   izeta = 1
                 lambda =    1.000000
                     rc =    6.799774
                 energy =   -0.294010
                kinetic =    0.301388
    potential(screened) =   -0.595398
       potential(ionic) =   -5.854038

   izeta = 2
                 rmatch =    6.387791
              splitnorm =    0.150000
                 energy =   -0.248820
                kinetic =    0.450170
    potential(screened) =   -0.698990
       potential(ionic) =   -6.319130

SPLIT: Orbitals with angular momentum L= 2

SPLIT: Basis orbitals for state 3d

SPLIT: PAO cut-off radius determined from an
SPLIT: energy shift=  0.020000 Ry

   izeta = 1
                 lambda =    1.000000
                     rc =    4.124234
                 energy =   -0.262775
                kinetic =    8.883013
    potential(screened) =   -9.145788
       potential(ionic) =  -18.099999

   izeta = 2
                 rmatch =    2.320685
              splitnorm =    0.150000
                 energy =    0.078117
                kinetic =   12.159866
    potential(screened) =  -12.081749
       potential(ionic) =  -21.731850

POLgen: Perturbative polarization orbital with L=  1

POLgen: Polarization orbital for state 4s

   izeta = 1
                     rc =    6.799774
                 energy =    0.008088
                kinetic =    0.570121
    potential(screened) =   -0.562033
       potential(ionic) =   -5.421934
atom: Total number of Sankey-type orbitals: 15

atm_pop: Valence configuration (for local Pseudopot. screening):
 4s( 2.00)                                                            
 4p( 0.00)                                                            
 3d( 6.00)                                                            
Vna: chval, zval:    8.00000   8.00000

Vna:  Cut-off radius for the neutral-atom potential:   6.799774
comcore: Pseudo-core radius Rcore=  3.826224

atom: _________________________________________________________________________

prinput: Basis input ----------------------------------------------------------

PAO.BasisType split     

%block ChemicalSpeciesLabel
    1   26 Fe                      # Species index, atomic number, species label
%endblock ChemicalSpeciesLabel

%block PAO.Basis                 # Define Basis set
Fe                    2                    # Species label, number of l-shells
 n=4   0   2 P   1                   # n, l, Nzeta, Polarization, NzetaPol
   6.800      6.388   
   1.000      1.000   
 n=3   2   2                         # n, l, Nzeta 
   4.124      2.321   
   1.000      1.000   
%endblock PAO.Basis

prinput: ----------------------------------------------------------------------

Dumping basis to NetCDF file Fe.ion.nc
coor:   Atomic-coordinates input format  =     Cartesian coordinates
coor:                                          (in units of alat)

siesta: Atomic coordinates (Bohr) and species
siesta:      0.00000   0.00000   0.00000  1        1
siesta:      5.42352   0.00000   0.00000  1        2
siesta:      0.00000   5.42352   0.00000  1        3
siesta:      5.42352   5.42352   0.00000  1        4
siesta:      2.71176   2.71176   2.71176  1        5
siesta:      8.13527   2.71176   2.71176  1        6
siesta:      2.71176   8.13527   2.71176  1        7
siesta:      8.13527   8.13527   2.71176  1        8

siesta: System type = bulk      

initatomlists: Number of atoms, orbitals, and projectors:      8   120   128

siesta: ******************** Simulation parameters ****************************
siesta:
siesta: The following are some of the parameters of the simulation.
siesta: A complete list of the parameters used, including default values,
siesta: can be found in file out.fdf
siesta:
redata: Spin configuration                          = collinear
redata: Number of spin components                   = 2
redata: Time-Reversal Symmetry                      = T
redata: Spin-spiral                                 = F
redata: Long output                                 =   F
redata: Number of Atomic Species                    =        1
redata: Charge density info will appear in .RHO file
redata: Write Mulliken Pop.                         = NO
redata: Mesh Cutoff                                 =  2000.0000 Ry
redata: Net charge of the system                    =     0.0000 |e|
redata: Min. number of SCF Iter                     =        0
redata: Max. number of SCF Iter                     =       50
redata: SCF mix quantity                            = Hamiltonian
redata: Mix DM or H after convergence               =   F
redata: Recompute H after scf cycle                 =   F
redata: Mix DM in first SCF step                    =   T
redata: Write Pulay info on disk                    =   F
redata: New DM Mixing Weight                        =     0.1000
redata: New DM Occupancy tolerance                  = 0.000000000001
redata: No kicks to SCF
redata: DM Mixing Weight for Kicks                  =     0.5000
redata: Require Harris convergence for SCF          =   F
redata: Harris energy tolerance for SCF             =     0.000100 eV
redata: Require DM convergence for SCF              =   T
redata: DM tolerance for SCF                        =     0.0010
redata: Require EDM convergence for SCF             =   F
redata: EDM tolerance for SCF                       =     0.001000 eV
redata: Require H convergence for SCF               =   T
redata: Hamiltonian tolerance for SCF               =     0.001000 eV
redata: Require (free) Energy convergence for SCF   =   F
redata: (free) Energy tolerance for SCF             =     0.000100 eV
redata: Antiferro initial spin density              =   F
redata: Using Saved Data (generic)                  =   F
redata: Use continuation files for DM               =   F
redata: Neglect nonoverlap interactions             =   F
redata: Method of Calculation                       = Diagonalization
redata: Divide and Conquer                          =   T
redata: Electronic Temperature                      =   290.1109 K
redata: Fix the spin of the system                  =   F
redata: Dynamics option                             = Single-point calculation
mix.SCF: Pulay mixing                            = Pulay
mix.SCF:    Variant                              = stable
mix.SCF:    History steps                        = 3
mix.SCF:    Linear mixing weight                 =     0.100000
mix.SCF:    Mixing weight                        =     0.100000
mix.SCF:    SVD condition                        = 0.1000E-07
mix.SCF: Spin-component mixing                   all
redata: Save all siesta data in one NC              =   T
redata: NC compression level                        =        0
redata: ***********************************************************************

%block SCF.Mixers
  Pulay
%endblock SCF.Mixers

%block SCF.Mixer.Pulay
  # Mixing method
  method pulay
  variant stable

  # Mixing options
  weight 0.1000
  weight.linear 0.1000
  history 3
%endblock SCF.Mixer.Pulay

DM_history_depth set to one: no extrapolation allowed by default for geometry relaxation
Size of DM history Fstack: 1
Total number of electrons:    64.000000
Total ionic charge:    64.000000

* ProcessorY, Blocksize:    2  24


* Orbital distribution balance (max,min):    48    24

 Kpoints in:          196 . Kpoints trimmed:          172

siesta: k-grid: Number of k-points =   172
siesta: k-grid: Cutoff (effective) =    17.398 Ang
siesta: k-grid: Supercell and displacements
siesta: k-grid:   -7  -7   7      0.000
siesta: k-grid:   -7   0   7      0.000
siesta: k-grid:    0   0   7      0.000

superc: Internal auxiliary supercell:     5 x     5 x     5  =     125
superc: Number of atoms, orbitals, and projectors:   1000  15000  16000


                     ====================================
                        Single-point calculation
                     ====================================

superc: Internal auxiliary supercell:     5 x     5 x     5  =     125
superc: Number of atoms, orbitals, and projectors:   1000  15000  16000

outcell: Unit cell vectors (Ang):
        5.740000    0.000000    0.000000
        0.000000    5.740000    0.000000
        2.870000    2.870000    2.870000

outcell: Cell vector modules (Ang)   :    5.740000    5.740000    4.970986
outcell: Cell angles (23,13,12) (deg):     54.7356     54.7356     90.0000
outcell: Cell volume (Ang**3)        :     94.5596
<dSpData1D:S at geom step 0
  <sparsity:sparsity for geom step 0
    nrows_g=120 nrows=48 sparsity=3.0446 nnzs=43842, refcount: 7>
  <dData1D:(new from dSpData1D) n=43842, refcount: 1>
refcount: 1>
new_DM -- step:     1
Initializing Density Matrix...
DM filled with atomic data:
<dSpData2D:DM initialized from atoms
  <sparsity:sparsity for geom step 0
    nrows_g=120 nrows=48 sparsity=3.0446 nnzs=43842, refcount: 8>
  <dData2D:DM n=43842 m=2, refcount: 1>
refcount: 1>

initDM: Initial spin polarization (Qup-Qdown) =   32.000000

No. of atoms with KB's overlaping orbs in proc 0. Max # of overlaps:      70     215
New grid distribution:   1
           1       1:   75    1:   38    1:   25
           2       1:   75    1:   38   26:   50
           3       1:   75   39:   75    1:   25
           4       1:   75   39:   75   26:   50

InitMesh: MESH =   150 x   150 x   100 =     2250000
InitMesh: (bp) =    75 x    75 x    50 =      281250
InitMesh: Mesh cutoff (required, used) =  2000.000  2097.094 Ry
ExtMesh (bp) on 0 =   343 x   306 x   277 =    29073366
New grid distribution:   2
           1       1:   38    1:   38    1:   50
           2      39:   75    1:   38    1:   50
           3       1:   38   39:   75    1:   50
           4      39:   75   39:   75    1:   50
New grid distribution:   3
           1       1:   38    1:   38    1:   50
           2      39:   75    1:   38    1:   50
           3       1:   38   39:   75    1:   50
           4      39:   75   39:   75    1:   50
Setting up quadratic distribution...
ExtMesh (bp) on 0 =   306 x   306 x   302 =    28278072
PhiOnMesh: Number of (b)points on node 0 =                72200
PhiOnMesh: nlist on node 0 =              7550882

stepf: Fermi-Dirac step function

siesta: Program's energy decomposition (eV):
siesta: Ebs     =      -585.168444
siesta: Eions   =      5704.717164
siesta: Ena     =       212.335166
siesta: Ekin    =      6460.297484
siesta: Enl     =     -3997.266524
siesta: Eso     =         0.000000
siesta: Eldau   =         0.000000
siesta: DEna    =       -68.191464
siesta: DUscf   =         6.950432
siesta: DUext   =         0.000000
siesta: Exc     =     -3276.960299
siesta: eta*DQ  =         0.000000
siesta: Emadel  =         0.000000
siesta: Emeta   =         0.000000
siesta: Emolmec =         0.000000
siesta: Ekinion =         0.000000
siesta: Eharris =     -6353.862046
siesta: Etot    =     -6367.552370
siesta: FreeEng =     -6367.567177

        iscf     Eharris(eV)        E_KS(eV)     FreeEng(eV)     dDmax    Ef(eV) dHmax(eV)
   scf:    1    -6353.862046    -6367.552370    -6367.567177  0.900948 -8.631630  4.042045
timer: Routine,Calls,Time,% = IterSCF        1      38.020  62.55
   scf:    2    -6370.548716    -6369.123878    -6369.143752  0.015741 -8.460899  3.059710
   scf:    3    -6372.144904    -6371.271040    -6371.289356  0.045766 -7.989421  0.468495
   scf:    4    -6371.419636    -6371.346338    -6371.361963  0.004953 -8.076867  0.342637
   scf:    5    -6371.837515    -6371.562987    -6371.580031  0.029131 -8.348223  0.049031
   scf:    6    -6371.567007    -6371.564929    -6371.582371  0.001110 -8.351312  0.049990
   scf:    7    -6371.569183    -6371.566976    -6371.584686  0.001067 -8.353276  0.047445
   scf:    8    -6371.597837    -6371.576000    -6371.596956  0.009313 -8.355657  0.034469
   scf:    9    -6371.575408    -6371.575706    -6371.597019  0.001028 -8.356252  0.045667
   scf:   10    -6371.575493    -6371.574832    -6371.594467  0.003836 -8.356274  0.026561
   scf:   11    -6371.574341    -6371.574575    -6371.594075  0.000387 -8.356625  0.027609
   scf:   12    -6371.574516    -6371.574546    -6371.594033  0.000061 -8.356862  0.027558
   scf:   13    -6371.575123    -6371.574813    -6371.594553  0.000346 -8.359226  0.024896
   scf:   14    -6371.575710    -6371.575211    -6371.595324  0.000756 -8.360218  0.022933
   scf:   15    -6371.577148    -6371.575936    -6371.596758  0.001839 -8.361093  0.020092
   scf:   16    -6371.576721    -6371.576265    -6371.597363  0.001017 -8.361323  0.018726
   scf:   17    -6371.577068    -6371.576582    -6371.597933  0.001432 -8.361739  0.016657
   scf:   18    -6371.576261    -6371.576411    -6371.597748  0.000333 -8.362253  0.016915
   scf:   19    -6371.576043    -6371.576211    -6371.597497  0.000498 -8.362970  0.017460
   scf:   20    -6371.576122    -6371.576165    -6371.597441  0.000196 -8.363664  0.017489
   scf:   21    -6371.576442    -6371.576295    -6371.597633  0.000226 -8.364412  0.016394
   scf:   22    -6371.577350    -6371.576729    -6371.598178  0.001049 -8.364831  0.013323
   scf:   23    -6371.577310    -6371.576984    -6371.598443  0.000695 -8.364826  0.011368
   scf:   24    -6371.577697    -6371.577283    -6371.598702  0.001036 -8.364641  0.009733
   scf:   25    -6371.577400    -6371.577338    -6371.598750  0.000273 -8.364847  0.008969
   scf:   26    -6371.577371    -6371.577353    -6371.598783  0.000227 -8.365717  0.011309
   scf:   27    -6371.577506    -6371.577422    -6371.598838  0.000429 -8.366530  0.007957
   scf:   28    -6371.577470    -6371.577444    -6371.598860  0.000199 -8.367314  0.006520
   scf:   29    -6371.577509    -6371.577474    -6371.598880  0.000189 -8.368060  0.005167
   scf:   30    -6371.577542    -6371.577506    -6371.598896  0.000174 -8.368743  0.004550
   scf:   31    -6371.577549    -6371.577527    -6371.598905  0.000089 -8.369062  0.002700
   scf:   32    -6371.577576    -6371.577551    -6371.598913  0.000091 -8.369349  0.002577
   scf:   33    -6371.577608    -6371.577578    -6371.598921  0.000089 -8.369564  0.002470
   scf:   34    -6371.577627    -6371.577602    -6371.598925  0.000066 -8.369618  0.002158
   scf:   35    -6371.577653    -6371.577627    -6371.598928  0.000073 -8.369582  0.002205
   scf:   36    -6371.577674    -6371.577650    -6371.598929  0.000072 -8.369505  0.001662
   scf:   37    -6371.577675    -6371.577662    -6371.598929  0.000041 -8.369384  0.001585
   scf:   38    -6371.577686    -6371.577674    -6371.598928  0.000037 -8.369200  0.001560
   scf:   39    -6371.577690    -6371.577682    -6371.598927  0.000029 -8.369038  0.001730
   scf:   40    -6371.577691    -6371.577686    -6371.598927  0.000014 -8.368927  0.001295
   scf:   41    -6371.577693    -6371.577690    -6371.598927  0.000011 -8.368815  0.001281
   scf:   42    -6371.577695    -6371.577693    -6371.598927  0.000013 -8.368689  0.001078
   scf:   43    -6371.577694    -6371.577693    -6371.598927  0.000008 -8.368612  0.001095
   scf:   44    -6371.577694    -6371.577694    -6371.598927  0.000009 -8.368533  0.000850

SCF Convergence by DM+H criterion
max |DM_out - DM_in|         :     0.0000090526
max |H_out - H_in|      (eV) :     0.0008499882
SCF cycle converged after 44 iterations

Using DM_out to compute the final energy and forces
No. of atoms with KB's overlaping orbs in proc 0. Max # of overlaps:      70     215

siesta: E_KS(eV) =            -6371.5777

siesta: E_KS - E_eggbox =     -6371.5777

siesta: Atomic forces (eV/Ang):
----------------------------------------
   Tot    0.000000    0.000000    0.000000
----------------------------------------
   Max    0.000000
   Res    0.000000    sqrt( Sum f_i^2 / 3N )
----------------------------------------
   Max    0.000000    constrained

Stress-tensor-Voigt (kbar):      -50.00      -50.00      -49.96       -0.18       -0.06       -0.06
(Free)E + p*V (eV/cell)    -6368.6487
Target enthalpy (eV/cell)    -6371.5989

siesta: Program's energy decomposition (eV):
siesta: Ebs     =      -675.788397
siesta: Eions   =      5704.717164
siesta: Ena     =       212.335166
siesta: Ekin    =      6150.210507
siesta: Enl     =     -3772.950665
siesta: Eso     =         0.000000
siesta: Eldau   =         0.000000
siesta: DEna    =       -24.451366
siesta: DUscf   =         1.029367
siesta: DUext   =         0.000000
siesta: Exc     =     -3233.033538
siesta: eta*DQ  =         0.000000
siesta: Emadel  =         0.000000
siesta: Emeta   =         0.000000
siesta: Emolmec =         0.000000
siesta: Ekinion =         0.000000
siesta: Eharris =     -6371.577694
siesta: Etot    =     -6371.577694
siesta: FreeEng =     -6371.598927

siesta: Final energy (eV):
siesta:  Band Struct. =    -675.788397
siesta:       Kinetic =    6150.210507
siesta:       Hartree =     692.640615
siesta:       Eldau   =       0.000000
siesta:       Eso     =       0.000000
siesta:    Ext. field =       0.000000
siesta:   Exch.-corr. =   -3233.033538
siesta:  Ion-electron =   -6702.081131
siesta:       Ion-ion =   -3279.314147
siesta:       Ekinion =       0.000000
siesta:         Total =   -6371.577694
siesta:         Fermi =      -8.368533

siesta: Stress tensor (static) (eV/Ang**3):
siesta:    -0.031209   -0.000113   -0.000037
siesta:    -0.000113   -0.031209   -0.000037
siesta:    -0.000037   -0.000037   -0.031179

siesta: Cell volume =         94.559612 Ang**3

siesta: Pressure (static):
siesta:                Solid            Molecule  Units
siesta:           0.00033980          0.00033980  Ry/Bohr**3
siesta:           0.03119937          0.03119937  eV/Ang**3
siesta:          49.98744174         49.98744174  kBar
(Free)E+ p_basis*V_orbitals  =       -6365.573251
(Free)Eharris+ p_basis*V_orbitals  =       -6365.573251

siesta: Total spin polarization (Qup-Qdown) =   18.885808
>> End of run:   8-AUG-2017  15:08:48
