
                           ***********************       
                           *  WELCOME TO SIESTA  *       
                           ***********************       

reinit: Reading from standard input
reinit: Dumped input in INPUT_TMP.32069
************************** Dump of input data file ****************************
SystemName       bcc Fe ferro GGA   # Descriptive name of the system
SystemLabel            Fe           # Short name for naming files
# Species and atoms
NumberOfSpecies        1
NumberOfAtoms          8
%block ChemicalSpeciesLabel
  1  26  Fe
%endblock ChemicalSpeciesLabel
# Basis
PAO.BasisSize         DZP
# Lattice and geometry
LatticeConstant       2.87 Ang
%block LatticeVectors
 2.00000   0.000000  0.000000
 0.00000   2.000000  0.000000
 1.00000   1.000000  1.000000
%endblock LatticeVectors
# Atomic coordinates
AtomicCoordinatesFormat     ScaledCartesian
%block AtomicCoordinatesAndAtomicSpecies
  0.000000000000    0.000000000000    0.000000000000  1
  1.000000000000    0.000000000000    0.000000000000  1
  0.000000000000    1.000000000000    0.000000000000  1
  1.000000000000    1.000000000000    0.000000000000  1
  0.500000000000    0.500000000000    0.500000000000  1
  1.500000000000    0.500000000000    0.500000000000  1
  0.500000000000    1.500000000000    0.500000000000  1
  1.500000000000    1.500000000000    0.500000000000  1
%endblock AtomicCoordinatesAndAtomicSpecies
KgridCutoff          15. Ang
# SCF options
DM.MixingWeight       0.1           # New DM amount for next SCF cycle
DM.Tolerance          1.d-3         # Tolerance in maximum difference
DM.NumberPulay         3
SolutionMethod        diagon        # OrderN or Diagon
ElectronicTemperature  25 meV       # Temp. for Fermi smearing
xc.functional         GGA           # Exchange-correlation functional
xc.authors            PBE           # Exchange-correlation version
SpinPolarized         true          # Logical parameters are: yes or no
MeshCutoff           2000. Ry        # Mesh cutoff. real space mesh
# Output options
CDF.Save              true
WriteDMHS.NetCDF      true
SaveHS                true
************************** End of input data file *****************************

reinit: -----------------------------------------------------------------------
reinit: System Name: bcc Fe ferro GGA
reinit: -----------------------------------------------------------------------
reinit: System Label: Fe
reinit: -----------------------------------------------------------------------
Siesta Version: siesta-4.1--719
Architecture  : x86_64-unknown-linux-gnu--Gfortran
Compiler flags: mpif90 -g -O2
PP flags      : -DMPI -DFC_HAVE_FLUSH -DFC_HAVE_ABORT -DCDF -DGRID_DP -DPHI_GRID_SP -DNCDF -DNCDF_4
Libraries     : -lnetcdff -lnetcdf -lpthread -lscalapack -lblacsF77init-openmpi -lblacsCinit-openmpi -lblacs-openmpi /usr/lib/lapack/liblapack.a -lblas
PARALLEL version
NetCDF support
NetCDF-4 support

* Running on 4 nodes in parallel
>> Start of run:  28-JUL-2017  11:43:00

initatom: Reading input for the pseudopotentials and atomic orbitals ----------
Species number:   1 Atomic number:   26 Label: Fe

Ground state valence configuration:   4s02  3d06
Reading pseudopotential information in formatted form from Fe.psf

Pseudopotential generated from a relativistic atomic calculation
There are spin-orbit pseudopotentials available
Spin-orbit interaction is not included in this calculation

Valence configuration for pseudopotential generation:
4s( 2.00) rc: 2.00
4p( 0.00) rc: 2.00
3d( 6.00) rc: 2.00
4f( 0.00) rc: 2.00
For Fe, standard SIESTA heuristics set lmxkb to 3
 (one more than the basis l, including polarization orbitals).
Use PS.lmax or PS.KBprojectors blocks to override.

<basis_specs>
===============================================================================
Fe                   Z=  26    Mass=  55.850        Charge= 0.17977+309
Lmxo=2 Lmxkb= 3    BasisType=split      Semic=F
L=0  Nsemic=0  Cnfigmx=4
          n=1  nzeta=2  polorb=1
            splnorm:   0.15000    
               vcte:    0.0000    
               rinn:    0.0000    
               qcoe:    0.0000    
               qyuk:    0.0000    
               qwid:   0.10000E-01
                rcs:    0.0000      0.0000    
            lambdas:    1.0000      1.0000    
L=1  Nsemic=0  Cnfigmx=4
L=2  Nsemic=0  Cnfigmx=3
          n=1  nzeta=2  polorb=0
            splnorm:   0.15000    
               vcte:    0.0000    
               rinn:    0.0000    
               qcoe:    0.0000    
               qyuk:    0.0000    
               qwid:   0.10000E-01
                rcs:    0.0000      0.0000    
            lambdas:    1.0000      1.0000    
-------------------------------------------------------------------------------
L=0  Nkbl=1  erefs: 0.17977+309
L=1  Nkbl=1  erefs: 0.17977+309
L=2  Nkbl=1  erefs: 0.17977+309
L=3  Nkbl=1  erefs: 0.17977+309
===============================================================================
</basis_specs>

atom: Called for Fe                    (Z =  26)

read_vps: Pseudopotential generation method:
read_vps: ATM3      Troullier-Martins                       
Total valence charge:    8.00000

read_vps: Pseudopotential includes a core correction:
read_vps: Pseudo-core for xc-correction

xc_check: Exchange-correlation functional:
xc_check: GGA Perdew, Burke & Ernzerhof 1996
V l=0 = -2*Zval/r beyond r=  2.7645
V l=1 = -2*Zval/r beyond r=  2.7645
V l=2 = -2*Zval/r beyond r=  2.7645
V l=3 = -2*Zval/r beyond r=  2.7645
All V_l potentials equal beyond r=  1.9726
This should be close to max(r_c) in ps generation
All pots = -2*Zval/r beyond r=  2.7645
Using large-core scheme for Vlocal

atom: Estimated core radius    2.76453
atom: Maximum radius for 4*pi*r*r*local-pseudopot. charge    3.05528
atom: Maximum radius for r*vlocal+2*Zval:    2.79930
GHOST: No ghost state for L =  0
GHOST: No ghost state for L =  1
GHOST: No ghost state for L =  2
GHOST: No ghost state for L =  3

KBgen: Kleinman-Bylander projectors: 
   l= 0   rc=  2.047986   el= -0.388305   Ekb=  4.259322   kbcos=  0.262992
   l= 1   rc=  2.047986   el= -0.097543   Ekb=  2.850785   kbcos=  0.194191
   l= 2   rc=  2.022544   el= -0.553240   Ekb=-12.567334   kbcos= -0.683368
   l= 3   rc=  2.047986   el=  0.003178   Ekb= -1.649997   kbcos= -0.006611

KBgen: Total number of  Kleinman-Bylander projectors:   16
atom: -------------------------------------------------------------------------

atom: SANKEY-TYPE ORBITALS:
atom: Selected multiple-zeta basis: split     

SPLIT: Orbitals with angular momentum L= 0

SPLIT: Basis orbitals for state 4s

SPLIT: PAO cut-off radius determined from an
SPLIT: energy shift=  0.020000 Ry

   izeta = 1
                 lambda =    1.000000
                     rc =    6.308440
                 energy =   -0.368145
                kinetic =    0.348842
    potential(screened) =   -0.716987
       potential(ionic) =   -6.129340

   izeta = 2
                 rmatch =    5.926225
              splitnorm =    0.150000
                 energy =   -0.314432
                kinetic =    0.521394
    potential(screened) =   -0.835826
       potential(ionic) =   -6.581555

SPLIT: Orbitals with angular momentum L= 2

SPLIT: Basis orbitals for state 3d

SPLIT: PAO cut-off radius determined from an
SPLIT: energy shift=  0.020000 Ry

   izeta = 1
                 lambda =    1.000000
                     rc =    3.731752
                 energy =   -0.535586
                kinetic =    9.598648
    potential(screened) =  -10.134233
       potential(ionic) =  -18.975344

   izeta = 2
                 rmatch =    2.126247
              splitnorm =    0.150000
                 energy =   -0.064651
                kinetic =   13.267357
    potential(screened) =  -13.332008
       potential(ionic) =  -22.743777

POLgen: Perturbative polarization orbital with L=  1

POLgen: Polarization orbital for state 4s

   izeta = 1
                     rc =    6.308440
                 energy =   -0.029040
                kinetic =    0.656471
    potential(screened) =   -0.685511
       potential(ionic) =   -5.738393
atom: Total number of Sankey-type orbitals: 15

atm_pop: Valence configuration (for local Pseudopot. screening):
 4s( 2.00)                                                            
 4p( 0.00)                                                            
 3d( 6.00)                                                            
Vna: chval, zval:    8.00000   8.00000

Vna:  Cut-off radius for the neutral-atom potential:   6.308440
comcore: Pseudo-core radius Rcore=  3.778693

atom: _________________________________________________________________________

prinput: Basis input ----------------------------------------------------------

PAO.BasisType split     

%block ChemicalSpeciesLabel
    1   26 Fe                      # Species index, atomic number, species label
%endblock ChemicalSpeciesLabel

%block PAO.Basis                 # Define Basis set
Fe                    2                    # Species label, number of l-shells
 n=4   0   2 P   1                   # n, l, Nzeta, Polarization, NzetaPol
   6.308      5.926   
   1.000      1.000   
 n=3   2   2                         # n, l, Nzeta 
   3.732      2.126   
   1.000      1.000   
%endblock PAO.Basis

prinput: ----------------------------------------------------------------------

Dumping basis to NetCDF file Fe.ion.nc
coor:   Atomic-coordinates input format  =     Cartesian coordinates
coor:                                          (in units of alat)

siesta: Atomic coordinates (Bohr) and species
siesta:      0.00000   0.00000   0.00000  1        1
siesta:      5.42352   0.00000   0.00000  1        2
siesta:      0.00000   5.42352   0.00000  1        3
siesta:      5.42352   5.42352   0.00000  1        4
siesta:      2.71176   2.71176   2.71176  1        5
siesta:      8.13527   2.71176   2.71176  1        6
siesta:      2.71176   8.13527   2.71176  1        7
siesta:      8.13527   8.13527   2.71176  1        8

siesta: System type = bulk      

initatomlists: Number of atoms, orbitals, and projectors:      8   120   128

siesta: ******************** Simulation parameters ****************************
siesta:
siesta: The following are some of the parameters of the simulation.
siesta: A complete list of the parameters used, including default values,
siesta: can be found in file out.fdf
siesta:
redata: Spin configuration                          = collinear
redata: Number of spin components                   = 2
redata: Time-Reversal Symmetry                      = T
redata: Spin-spiral                                 = F
redata: Long output                                 =   F
redata: Number of Atomic Species                    =        1
redata: Charge density info will appear in .RHO file
redata: Write Mulliken Pop.                         = NO
redata: Mesh Cutoff                                 =  2000.0000 Ry
redata: Net charge of the system                    =     0.0000 |e|
redata: Min. number of SCF Iter                     =        0
redata: Max. number of SCF Iter                     =       50
redata: SCF mix quantity                            = Hamiltonian
redata: Mix DM or H after convergence               =   F
redata: Recompute H after scf cycle                 =   F
redata: Mix DM in first SCF step                    =   T
redata: Write Pulay info on disk                    =   F
redata: New DM Mixing Weight                        =     0.1000
redata: New DM Occupancy tolerance                  = 0.000000000001
redata: No kicks to SCF
redata: DM Mixing Weight for Kicks                  =     0.5000
redata: Require Harris convergence for SCF          =   F
redata: Harris energy tolerance for SCF             =     0.000100 eV
redata: Require DM convergence for SCF              =   T
redata: DM tolerance for SCF                        =     0.0010
redata: Require EDM convergence for SCF             =   F
redata: EDM tolerance for SCF                       =     0.001000 eV
redata: Require H convergence for SCF               =   T
redata: Hamiltonian tolerance for SCF               =     0.001000 eV
redata: Require (free) Energy convergence for SCF   =   F
redata: (free) Energy tolerance for SCF             =     0.000100 eV
redata: Antiferro initial spin density              =   F
redata: Using Saved Data (generic)                  =   F
redata: Use continuation files for DM               =   F
redata: Neglect nonoverlap interactions             =   F
redata: Method of Calculation                       = Diagonalization
redata: Divide and Conquer                          =   T
redata: Electronic Temperature                      =   290.1109 K
redata: Fix the spin of the system                  =   F
redata: Dynamics option                             = Single-point calculation
mix.SCF: Pulay mixing                            = Pulay
mix.SCF:    Variant                              = stable
mix.SCF:    History steps                        = 3
mix.SCF:    Linear mixing weight                 =     0.100000
mix.SCF:    Mixing weight                        =     0.100000
mix.SCF:    SVD condition                        = 0.1000E-07
mix.SCF: Spin-component mixing                   all
redata: Save all siesta data in one NC              =   T
redata: NC compression level                        =        0
redata: ***********************************************************************

%block SCF.Mixers
  Pulay
%endblock SCF.Mixers

%block SCF.Mixer.Pulay
  # Mixing method
  method pulay
  variant stable

  # Mixing options
  weight 0.1000
  weight.linear 0.1000
  history 3
%endblock SCF.Mixer.Pulay

DM_history_depth set to one: no extrapolation allowed by default for geometry relaxation
Size of DM history Fstack: 1
Total number of electrons:    64.000000
Total ionic charge:    64.000000

* ProcessorY, Blocksize:    2  24


* Orbital distribution balance (max,min):    48    24

 Kpoints in:          196 . Kpoints trimmed:          172

siesta: k-grid: Number of k-points =   172
siesta: k-grid: Cutoff (effective) =    17.398 Ang
siesta: k-grid: Supercell and displacements
siesta: k-grid:   -7  -7   7      0.000
siesta: k-grid:   -7   0   7      0.000
siesta: k-grid:    0   0   7      0.000

superc: Internal auxiliary supercell:     5 x     5 x     5  =     125
superc: Number of atoms, orbitals, and projectors:   1000  15000  16000


                     ====================================
                        Single-point calculation
                     ====================================

superc: Internal auxiliary supercell:     5 x     5 x     5  =     125
superc: Number of atoms, orbitals, and projectors:   1000  15000  16000

outcell: Unit cell vectors (Ang):
        5.740000    0.000000    0.000000
        0.000000    5.740000    0.000000
        2.870000    2.870000    2.870000

outcell: Cell vector modules (Ang)   :    5.740000    5.740000    4.970986
outcell: Cell angles (23,13,12) (deg):     54.7356     54.7356     90.0000
outcell: Cell volume (Ang**3)        :     94.5596
<dSpData1D:S at geom step 0
  <sparsity:sparsity for geom step 0
    nrows_g=120 nrows=48 sparsity=2.8312 nnzs=40770, refcount: 7>
  <dData1D:(new from dSpData1D) n=40770, refcount: 1>
refcount: 1>
new_DM -- step:     1
Initializing Density Matrix...
DM filled with atomic data:
<dSpData2D:DM initialized from atoms
  <sparsity:sparsity for geom step 0
    nrows_g=120 nrows=48 sparsity=2.8312 nnzs=40770, refcount: 8>
  <dData2D:DM n=40770 m=2, refcount: 1>
refcount: 1>

initDM: Initial spin polarization (Qup-Qdown) =   32.000000

No. of atoms with KB's overlaping orbs in proc 0. Max # of overlaps:      70     215
New grid distribution:   1
           1       1:   75    1:   38    1:   25
           2       1:   75    1:   38   26:   50
           3       1:   75   39:   75    1:   25
           4       1:   75   39:   75   26:   50

InitMesh: MESH =   150 x   150 x   100 =     2250000
InitMesh: (bp) =    75 x    75 x    50 =      281250
InitMesh: Mesh cutoff (required, used) =  2000.000  2097.094 Ry
ExtMesh (bp) on 0 =   323 x   286 x   261 =    24110658
New grid distribution:   2
           1      38:   75    1:   37    1:   50
           2       1:   37    1:   37    1:   50
           3      38:   75   38:   75    1:   50
           4       1:   37   38:   75    1:   50
New grid distribution:   3
           1       1:   38    1:   38    1:   50
           2      39:   75    1:   38    1:   50
           3       1:   38   39:   75    1:   50
           4      39:   75   39:   75    1:   50
Setting up quadratic distribution...
ExtMesh (bp) on 0 =   286 x   285 x   286 =    23311860
PhiOnMesh: Number of (b)points on node 0 =                70300
PhiOnMesh: nlist on node 0 =              5802636

stepf: Fermi-Dirac step function

siesta: Program's energy decomposition (eV):
siesta: Ebs     =      -578.086649
siesta: Eions   =      5695.611281
siesta: Ena     =       157.779748
siesta: Ekin    =      5859.522634
siesta: Enl     =     -3553.535103
siesta: Eso     =         0.000000
siesta: Eldau   =         0.000000
siesta: DEna    =        64.726066
siesta: DUscf   =         8.848447
siesta: DUext   =         0.000000
siesta: Exc     =     -3089.104003
siesta: eta*DQ  =         0.000000
siesta: Emadel  =         0.000000
siesta: Emeta   =         0.000000
siesta: Emolmec =         0.000000
siesta: Ekinion =         0.000000
siesta: Eharris =     -6249.051855
siesta: Etot    =     -6247.373493
siesta: FreeEng =     -6247.389294

        iscf     Eharris(eV)        E_KS(eV)     FreeEng(eV)     dDmax    Ef(eV) dHmax(eV)
   scf:    1    -6249.051855    -6247.373493    -6247.389294  0.696884 -3.923417  4.923715
timer: Routine,Calls,Time,% = IterSCF        1      26.988  58.79
   scf:    2    -6251.444580    -6249.492940    -6249.505948  0.025255 -4.213173  3.803630
   scf:    3    -6253.263358    -6252.357601    -6252.370952  0.082148 -5.155400  0.624997
   scf:    4    -6251.086111    -6251.988950    -6252.002111  0.037102 -4.863786  1.803035
   scf:    5    -6253.277912    -6252.815737    -6252.834959  0.042152 -5.428695  0.208590
   scf:    6    -6252.852332    -6252.835062    -6252.856433  0.006606 -5.398924  0.099529
   scf:    7    -6252.843604    -6252.839243    -6252.860856  0.001470 -5.405495  0.080942
   scf:    8    -6253.114283    -6252.898843    -6252.909147  0.038883 -5.405822  0.135790
   scf:    9    -6252.925105    -6252.901708    -6252.917154  0.013348 -5.397546  0.055311
   scf:   10    -6252.913830    -6252.905763    -6252.919777  0.005920 -5.396813  0.012536
   scf:   11    -6252.906354    -6252.906030    -6252.919633  0.000677 -5.397319  0.010901
   scf:   12    -6252.906123    -6252.906071    -6252.919614  0.000886 -5.397420  0.011821
   scf:   13    -6252.905955    -6252.906011    -6252.919685  0.000226 -5.397839  0.009921
   scf:   14    -6252.905444    -6252.905682    -6252.919910  0.001080 -5.399747  0.005137
   scf:   15    -6252.905648    -6252.905665    -6252.919917  0.000050 -5.399650  0.004676
   scf:   16    -6252.905390    -6252.905520    -6252.919957  0.000414 -5.399238  0.001973
   scf:   17    -6252.905415    -6252.905466    -6252.919966  0.000152 -5.399283  0.001624
   scf:   18    -6252.905369    -6252.905416    -6252.919972  0.000141 -5.399353  0.001338
   scf:   19    -6252.905388    -6252.905402    -6252.919974  0.000080 -5.399386  0.001948
   scf:   20    -6252.905357    -6252.905379    -6252.919975  0.000073 -5.399369  0.001052
   scf:   21    -6252.905363    -6252.905371    -6252.919976  0.000045 -5.399341  0.000718

SCF Convergence by DM+H criterion
max |DM_out - DM_in|         :     0.0000450238
max |H_out - H_in|      (eV) :     0.0007178400
SCF cycle converged after 21 iterations

Using DM_out to compute the final energy and forces
No. of atoms with KB's overlaping orbs in proc 0. Max # of overlaps:      70     215

siesta: E_KS(eV) =            -6252.9054

siesta: E_KS - E_eggbox =     -6252.9054

siesta: Atomic forces (eV/Ang):
----------------------------------------
   Tot    0.000000   -0.000000   -0.000000
----------------------------------------
   Max    0.000000
   Res    0.000000    sqrt( Sum f_i^2 / 3N )
----------------------------------------
   Max    0.000000    constrained

Stress-tensor-Voigt (kbar):       94.68       94.68       96.89        0.45        0.07        0.07
(Free)E + p*V (eV/cell)    -6258.5513
Target enthalpy (eV/cell)    -6252.9200

siesta: Program's energy decomposition (eV):
siesta: Ebs     =      -487.464866
siesta: Eions   =      5695.611281
siesta: Ena     =       157.779748
siesta: Ekin    =      6186.235732
siesta: Enl     =     -3802.091109
siesta: Eso     =         0.000000
siesta: Eldau   =         0.000000
siesta: DEna    =        25.148582
siesta: DUscf   =         1.486808
siesta: DUext   =         0.000000
siesta: Exc     =     -3125.853851
siesta: eta*DQ  =         0.000000
siesta: Emadel  =         0.000000
siesta: Emeta   =         0.000000
siesta: Emolmec =         0.000000
siesta: Ekinion =         0.000000
siesta: Eharris =     -6252.905363
siesta: Etot    =     -6252.905371
siesta: FreeEng =     -6252.919976

siesta: Final energy (eV):
siesta:  Band Struct. =    -487.464866
siesta:       Kinetic =    6186.235732
siesta:       Hartree =     696.276970
siesta:       Eldau   =       0.000000
siesta:       Eso     =       0.000000
siesta:    Ext. field =       0.000000
siesta:   Exch.-corr. =   -3125.853851
siesta:  Ion-electron =   -6554.162503
siesta:       Ion-ion =   -3455.401719
siesta:       Ekinion =       0.000000
siesta:         Total =   -6252.905371
siesta:         Fermi =      -5.399341

siesta: Stress tensor (static) (eV/Ang**3):
siesta:     0.059093    0.000283    0.000043
siesta:     0.000283    0.059093    0.000043
siesta:     0.000043    0.000043    0.060475

siesta: Cell volume =         94.559612 Ang**3

siesta: Pressure (static):
siesta:                Solid            Molecule  Units
siesta:          -0.00064861         -0.00064861  Ry/Bohr**3
siesta:          -0.05955344         -0.05955344  eV/Ang**3
siesta:         -95.41616344        -95.41616344  kBar
(Free)E+ p_basis*V_orbitals  =       -6248.135759
(Free)Eharris+ p_basis*V_orbitals  =       -6248.135751

siesta: Total spin polarization (Qup-Qdown) =   18.098890
>> End of run:  28-JUL-2017  11:49:51
