
                           ***********************       
                           *  WELCOME TO SIESTA  *       
                           ***********************       

reinit: Reading from standard input
reinit: Dumped input in INPUT_TMP.87249
************************** Dump of input data file ****************************
SystemName       bcc Fe ferro GGA   # Descriptive name of the system
SystemLabel            Fe           # Short name for naming files
# Species and atoms
NumberOfSpecies        1
NumberOfAtoms          8
%block ChemicalSpeciesLabel
  1  26  Fe
%endblock ChemicalSpeciesLabel
# Basis
PAO.BasisSize         DZP
# Lattice and geometry
LatticeConstant       2.87 Ang
%block LatticeVectors
 2.00000   0.000000  0.000000
 0.00000   2.000000  0.000000
 1.00000   1.000000  1.000000
%endblock LatticeVectors
# Atomic coordinates
AtomicCoordinatesFormat     ScaledCartesian
%block AtomicCoordinatesAndAtomicSpecies
  0.000000000000    0.000000000000    0.000000000000  1
  1.000000000000    0.000000000000    0.000000000000  1
  0.000000000000    1.000000000000    0.000000000000  1
  1.000000000000    1.000000000000    0.000000000000  1
  0.500000000000    0.500000000000    0.500000000000  1
  1.500000000000    0.500000000000    0.500000000000  1
  0.500000000000    1.500000000000    0.500000000000  1
  1.500000000000    1.500000000000    0.500000000000  1
%endblock AtomicCoordinatesAndAtomicSpecies
KgridCutoff          15. Ang
# SCF options
DM.MixingWeight       0.1           # New DM amount for next SCF cycle
DM.Tolerance          1.d-3         # Tolerance in maximum difference
DM.NumberPulay         3
SolutionMethod        diagon        # OrderN or Diagon
ElectronicTemperature  25 meV       # Temp. for Fermi smearing
xc.functional         GGA           # Exchange-correlation functional
xc.authors            PBE           # Exchange-correlation version
SpinPolarized         true          # Logical parameters are: yes or no
MeshCutoff           2000. Ry        # Mesh cutoff. real space mesh
# Output options
CDF.Save              true
WriteDMHS.NetCDF      true
SaveHS                true
************************** End of input data file *****************************

reinit: -----------------------------------------------------------------------
reinit: System Name: bcc Fe ferro GGA
reinit: -----------------------------------------------------------------------
reinit: System Label: Fe
reinit: -----------------------------------------------------------------------
Siesta Version: siesta-4.1--719
Architecture  : x86_64-unknown-linux-gnu--Gfortran
Compiler flags: mpif90 -g -O2
PP flags      : -DMPI -DFC_HAVE_FLUSH -DFC_HAVE_ABORT -DCDF -DGRID_DP -DPHI_GRID_SP -DNCDF -DNCDF_4
Libraries     : -lnetcdff -lnetcdf -lpthread -lscalapack -lblacsF77init-openmpi -lblacsCinit-openmpi -lblacs-openmpi /usr/lib/lapack/liblapack.a -lblas
PARALLEL version
NetCDF support
NetCDF-4 support

* Running on 4 nodes in parallel
>> Start of run:   8-AUG-2017  11:35:52

initatom: Reading input for the pseudopotentials and atomic orbitals ----------
Species number:   1 Atomic number:   26 Label: Fe

Ground state valence configuration:   4s02  3d06
Reading pseudopotential information in formatted form from Fe.psf

Pseudopotential generated from a relativistic atomic calculation
There are spin-orbit pseudopotentials available
Spin-orbit interaction is not included in this calculation

Valence configuration for pseudopotential generation:
4s( 2.00) rc: 2.00
4p( 0.00) rc: 2.00
3d( 6.00) rc: 2.00
4f( 0.00) rc: 2.00
For Fe, standard SIESTA heuristics set lmxkb to 3
 (one more than the basis l, including polarization orbitals).
Use PS.lmax or PS.KBprojectors blocks to override.

<basis_specs>
===============================================================================
Fe                   Z=  26    Mass=  55.850        Charge= 0.17977+309
Lmxo=2 Lmxkb= 3    BasisType=split      Semic=F
L=0  Nsemic=0  Cnfigmx=4
          n=1  nzeta=2  polorb=1
            splnorm:   0.15000    
               vcte:    0.0000    
               rinn:    0.0000    
               qcoe:    0.0000    
               qyuk:    0.0000    
               qwid:   0.10000E-01
                rcs:    0.0000      0.0000    
            lambdas:    1.0000      1.0000    
L=1  Nsemic=0  Cnfigmx=4
L=2  Nsemic=0  Cnfigmx=3
          n=1  nzeta=2  polorb=0
            splnorm:   0.15000    
               vcte:    0.0000    
               rinn:    0.0000    
               qcoe:    0.0000    
               qyuk:    0.0000    
               qwid:   0.10000E-01
                rcs:    0.0000      0.0000    
            lambdas:    1.0000      1.0000    
-------------------------------------------------------------------------------
L=0  Nkbl=1  erefs: 0.17977+309
L=1  Nkbl=1  erefs: 0.17977+309
L=2  Nkbl=1  erefs: 0.17977+309
L=3  Nkbl=1  erefs: 0.17977+309
===============================================================================
</basis_specs>

atom: Called for Fe                    (Z =  26)

read_vps: Pseudopotential generation method:
read_vps: ATM3      Troullier-Martins                       
Total valence charge:    8.00000

read_vps: Pseudopotential includes a core correction:
read_vps: Pseudo-core for xc-correction

xc_check: Exchange-correlation functional:
xc_check: GGA Perdew, Burke & Ernzerhof 1996
V l=0 = -2*Zval/r beyond r=  2.7645
V l=1 = -2*Zval/r beyond r=  2.7645
V l=2 = -2*Zval/r beyond r=  2.7645
V l=3 = -2*Zval/r beyond r=  2.7645
All V_l potentials equal beyond r=  1.9726
This should be close to max(r_c) in ps generation
All pots = -2*Zval/r beyond r=  2.7645
Using large-core scheme for Vlocal

atom: Estimated core radius    2.76453
atom: Maximum radius for 4*pi*r*r*local-pseudopot. charge    3.05528
atom: Maximum radius for r*vlocal+2*Zval:    2.79930
GHOST: No ghost state for L =  0
GHOST: No ghost state for L =  1
GHOST: No ghost state for L =  2
GHOST: No ghost state for L =  3

KBgen: Kleinman-Bylander projectors: 
   l= 0   rc=  2.047986   el= -0.388305   Ekb=  4.264000   kbcos=  0.262873
   l= 1   rc=  2.047986   el= -0.097543   Ekb=  2.849253   kbcos=  0.194234
   l= 2   rc=  2.022544   el= -0.553240   Ekb=-12.559631   kbcos= -0.683748
   l= 3   rc=  2.047986   el=  0.003178   Ekb= -1.654284   kbcos= -0.006603

KBgen: Total number of  Kleinman-Bylander projectors:   16
atom: -------------------------------------------------------------------------

atom: SANKEY-TYPE ORBITALS:
atom: Selected multiple-zeta basis: split     

SPLIT: Orbitals with angular momentum L= 0

SPLIT: Basis orbitals for state 4s

SPLIT: PAO cut-off radius determined from an
SPLIT: energy shift=  0.020000 Ry

   izeta = 1
                 lambda =    1.000000
                     rc =    6.308440
                 energy =   -0.368145
                kinetic =    0.348842
    potential(screened) =   -0.716987
       potential(ionic) =   -6.129277

   izeta = 2
                 rmatch =    5.926225
              splitnorm =    0.150000
                 energy =   -0.314432
                kinetic =    0.521394
    potential(screened) =   -0.835826
       potential(ionic) =   -6.581565

SPLIT: Orbitals with angular momentum L= 2

SPLIT: Basis orbitals for state 3d

SPLIT: PAO cut-off radius determined from an
SPLIT: energy shift=  0.020000 Ry

   izeta = 1
                 lambda =    1.000000
                     rc =    3.731752
                 energy =   -0.535586
                kinetic =    9.598648
    potential(screened) =  -10.134233
       potential(ionic) =  -18.978381

   izeta = 2
                 rmatch =    2.126247
              splitnorm =    0.150000
                 energy =   -0.064651
                kinetic =   13.267357
    potential(screened) =  -13.332008
       potential(ionic) =  -22.747442

POLgen: Perturbative polarization orbital with L=  1

POLgen: Polarization orbital for state 4s

   izeta = 1
                     rc =    6.308440
                 energy =   -0.029040
                kinetic =    0.656471
    potential(screened) =   -0.685511
       potential(ionic) =   -5.738419
atom: Total number of Sankey-type orbitals: 15

atm_pop: Valence configuration (for local Pseudopot. screening):
 4s( 2.00)                                                            
 4p( 0.00)                                                            
 3d( 6.00)                                                            
Vna: chval, zval:    8.00000   8.00000

Vna:  Cut-off radius for the neutral-atom potential:   6.308440
comcore: Pseudo-core radius Rcore=  3.778693

atom: _________________________________________________________________________

prinput: Basis input ----------------------------------------------------------

PAO.BasisType split     

%block ChemicalSpeciesLabel
    1   26 Fe                      # Species index, atomic number, species label
%endblock ChemicalSpeciesLabel

%block PAO.Basis                 # Define Basis set
Fe                    2                    # Species label, number of l-shells
 n=4   0   2 P   1                   # n, l, Nzeta, Polarization, NzetaPol
   6.308      5.926   
   1.000      1.000   
 n=3   2   2                         # n, l, Nzeta 
   3.732      2.126   
   1.000      1.000   
%endblock PAO.Basis

prinput: ----------------------------------------------------------------------

Dumping basis to NetCDF file Fe.ion.nc
coor:   Atomic-coordinates input format  =     Cartesian coordinates
coor:                                          (in units of alat)

siesta: Atomic coordinates (Bohr) and species
siesta:      0.00000   0.00000   0.00000  1        1
siesta:      5.42352   0.00000   0.00000  1        2
siesta:      0.00000   5.42352   0.00000  1        3
siesta:      5.42352   5.42352   0.00000  1        4
siesta:      2.71176   2.71176   2.71176  1        5
siesta:      8.13527   2.71176   2.71176  1        6
siesta:      2.71176   8.13527   2.71176  1        7
siesta:      8.13527   8.13527   2.71176  1        8

siesta: System type = bulk      

initatomlists: Number of atoms, orbitals, and projectors:      8   120   128

siesta: ******************** Simulation parameters ****************************
siesta:
siesta: The following are some of the parameters of the simulation.
siesta: A complete list of the parameters used, including default values,
siesta: can be found in file out.fdf
siesta:
redata: Spin configuration                          = collinear
redata: Number of spin components                   = 2
redata: Time-Reversal Symmetry                      = T
redata: Spin-spiral                                 = F
redata: Long output                                 =   F
redata: Number of Atomic Species                    =        1
redata: Charge density info will appear in .RHO file
redata: Write Mulliken Pop.                         = NO
redata: Mesh Cutoff                                 =  2000.0000 Ry
redata: Net charge of the system                    =     0.0000 |e|
redata: Min. number of SCF Iter                     =        0
redata: Max. number of SCF Iter                     =       50
redata: SCF mix quantity                            = Hamiltonian
redata: Mix DM or H after convergence               =   F
redata: Recompute H after scf cycle                 =   F
redata: Mix DM in first SCF step                    =   T
redata: Write Pulay info on disk                    =   F
redata: New DM Mixing Weight                        =     0.1000
redata: New DM Occupancy tolerance                  = 0.000000000001
redata: No kicks to SCF
redata: DM Mixing Weight for Kicks                  =     0.5000
redata: Require Harris convergence for SCF          =   F
redata: Harris energy tolerance for SCF             =     0.000100 eV
redata: Require DM convergence for SCF              =   T
redata: DM tolerance for SCF                        =     0.0010
redata: Require EDM convergence for SCF             =   F
redata: EDM tolerance for SCF                       =     0.001000 eV
redata: Require H convergence for SCF               =   T
redata: Hamiltonian tolerance for SCF               =     0.001000 eV
redata: Require (free) Energy convergence for SCF   =   F
redata: (free) Energy tolerance for SCF             =     0.000100 eV
redata: Antiferro initial spin density              =   F
redata: Using Saved Data (generic)                  =   F
redata: Use continuation files for DM               =   F
redata: Neglect nonoverlap interactions             =   F
redata: Method of Calculation                       = Diagonalization
redata: Divide and Conquer                          =   T
redata: Electronic Temperature                      =   290.1109 K
redata: Fix the spin of the system                  =   F
redata: Dynamics option                             = Single-point calculation
mix.SCF: Pulay mixing                            = Pulay
mix.SCF:    Variant                              = stable
mix.SCF:    History steps                        = 3
mix.SCF:    Linear mixing weight                 =     0.100000
mix.SCF:    Mixing weight                        =     0.100000
mix.SCF:    SVD condition                        = 0.1000E-07
mix.SCF: Spin-component mixing                   all
redata: Save all siesta data in one NC              =   T
redata: NC compression level                        =        0
redata: ***********************************************************************

%block SCF.Mixers
  Pulay
%endblock SCF.Mixers

%block SCF.Mixer.Pulay
  # Mixing method
  method pulay
  variant stable

  # Mixing options
  weight 0.1000
  weight.linear 0.1000
  history 3
%endblock SCF.Mixer.Pulay

DM_history_depth set to one: no extrapolation allowed by default for geometry relaxation
Size of DM history Fstack: 1
Total number of electrons:    64.000000
Total ionic charge:    64.000000

* ProcessorY, Blocksize:    2  24


* Orbital distribution balance (max,min):    48    24

 Kpoints in:          196 . Kpoints trimmed:          172

siesta: k-grid: Number of k-points =   172
siesta: k-grid: Cutoff (effective) =    17.398 Ang
siesta: k-grid: Supercell and displacements
siesta: k-grid:   -7  -7   7      0.000
siesta: k-grid:   -7   0   7      0.000
siesta: k-grid:    0   0   7      0.000

superc: Internal auxiliary supercell:     5 x     5 x     5  =     125
superc: Number of atoms, orbitals, and projectors:   1000  15000  16000


                     ====================================
                        Single-point calculation
                     ====================================

superc: Internal auxiliary supercell:     5 x     5 x     5  =     125
superc: Number of atoms, orbitals, and projectors:   1000  15000  16000

outcell: Unit cell vectors (Ang):
        5.740000    0.000000    0.000000
        0.000000    5.740000    0.000000
        2.870000    2.870000    2.870000

outcell: Cell vector modules (Ang)   :    5.740000    5.740000    4.970986
outcell: Cell angles (23,13,12) (deg):     54.7356     54.7356     90.0000
outcell: Cell volume (Ang**3)        :     94.5596
<dSpData1D:S at geom step 0
  <sparsity:sparsity for geom step 0
    nrows_g=120 nrows=48 sparsity=2.8312 nnzs=40770, refcount: 7>
  <dData1D:(new from dSpData1D) n=40770, refcount: 1>
refcount: 1>
new_DM -- step:     1
Initializing Density Matrix...
DM filled with atomic data:
<dSpData2D:DM initialized from atoms
  <sparsity:sparsity for geom step 0
    nrows_g=120 nrows=48 sparsity=2.8312 nnzs=40770, refcount: 8>
  <dData2D:DM n=40770 m=2, refcount: 1>
refcount: 1>

initDM: Initial spin polarization (Qup-Qdown) =   32.000000

No. of atoms with KB's overlaping orbs in proc 0. Max # of overlaps:      70     215
New grid distribution:   1
           1       1:   75    1:   38    1:   25
           2       1:   75    1:   38   26:   50
           3       1:   75   39:   75    1:   25
           4       1:   75   39:   75   26:   50

InitMesh: MESH =   150 x   150 x   100 =     2250000
InitMesh: (bp) =    75 x    75 x    50 =      281250
InitMesh: Mesh cutoff (required, used) =  2000.000  2097.094 Ry
ExtMesh (bp) on 0 =   323 x   286 x   261 =    24110658
New grid distribution:   2
           1      38:   75    1:   37    1:   50
           2       1:   37    1:   37    1:   50
           3      38:   75   38:   75    1:   50
           4       1:   37   38:   75    1:   50
New grid distribution:   3
           1       1:   38    1:   38    1:   50
           2      39:   75    1:   38    1:   50
           3       1:   38   39:   75    1:   50
           4      39:   75   39:   75    1:   50
Setting up quadratic distribution...
ExtMesh (bp) on 0 =   286 x   285 x   286 =    23311860
PhiOnMesh: Number of (b)points on node 0 =                70300
PhiOnMesh: nlist on node 0 =              5802636

stepf: Fermi-Dirac step function

siesta: Program's energy decomposition (eV):
siesta: Ebs     =      -578.381855
siesta: Eions   =      5695.611304
siesta: Ena     =       157.779754
siesta: Ekin    =      5860.446851
siesta: Enl     =     -3555.867666
siesta: Eso     =         0.000000
siesta: Eldau   =         0.000000
siesta: DEna    =        64.704084
siesta: DUscf   =         8.836322
siesta: DUext   =         0.000000
siesta: Exc     =     -3232.985011
siesta: eta*DQ  =         0.000000
siesta: Emadel  =         0.000000
siesta: Emeta   =         0.000000
siesta: Emolmec =         0.000000
siesta: Ekinion =         0.000000
siesta: Eharris =     -6394.117412
siesta: Etot    =     -6392.696970
siesta: FreeEng =     -6392.712891

        iscf     Eharris(eV)        E_KS(eV)     FreeEng(eV)     dDmax    Ef(eV) dHmax(eV)
   scf:    1    -6394.117412    -6392.696970    -6392.712891  0.698072 -3.917537  4.909300
timer: Routine,Calls,Time,% = IterSCF        1      27.968  59.71
   scf:    2    -6396.793038    -6394.826873    -6394.841315  0.025638 -4.197591  3.802178
   scf:    3    -6398.599478    -6397.696430    -6397.708472  0.082250 -5.145145  0.632481
   scf:    4    -6396.658392    -6397.412309    -6397.424475  0.035385 -4.857432  1.702933
   scf:    5    -6398.541213    -6398.138741    -6398.157158  0.041479 -5.436540  0.236132
   scf:    6    -6398.157696    -6398.150884    -6398.170219  0.004077 -5.391960  0.065028
   scf:    7    -6398.158830    -6398.154695    -6398.174722  0.002005 -5.394671  0.068550
   scf:    8    -6398.382545    -6398.208563    -6398.223512  0.035406 -5.398360  0.018178
   scf:    9    -6398.210461    -6398.209029    -6398.224352  0.002979 -5.402009  0.016186
   scf:   10    -6398.209351    -6398.208294    -6398.222915  0.003865 -5.400970  0.025375
   scf:   11    -6398.212131    -6398.208963    -6398.224413  0.004912 -5.408583  0.006772
   scf:   12    -6398.209072    -6398.209017    -6398.224451  0.000209 -5.408706  0.006829
   scf:   13    -6398.209392    -6398.209188    -6398.224540  0.000610 -5.407924  0.004760
   scf:   14    -6398.209365    -6398.209262    -6398.224548  0.000510 -5.405883  0.002599
   scf:   15    -6398.209262    -6398.209262    -6398.224548  0.000008 -5.405761  0.002282
   scf:   16    -6398.209233    -6398.209245    -6398.224554  0.000214 -5.405992  0.000446

SCF Convergence by DM+H criterion
max |DM_out - DM_in|         :     0.0002139997
max |H_out - H_in|      (eV) :     0.0004456359
SCF cycle converged after 16 iterations

Using DM_out to compute the final energy and forces
No. of atoms with KB's overlaping orbs in proc 0. Max # of overlaps:      70     215

siesta: E_KS(eV) =            -6398.2092

siesta: E_KS - E_eggbox =     -6398.2092

siesta: Atomic forces (eV/Ang):
----------------------------------------
   Tot    0.000000    0.000000    0.000000
----------------------------------------
   Max    0.000000
   Res    0.000000    sqrt( Sum f_i^2 / 3N )
----------------------------------------
   Max    0.000000    constrained

Stress-tensor-Voigt (kbar):       89.64       89.64       91.83        0.44        0.06        0.06
(Free)E + p*V (eV/cell)    -6403.5579
Target enthalpy (eV/cell)    -6398.2246

siesta: Program's energy decomposition (eV):
siesta: Ebs     =      -487.654346
siesta: Eions   =      5695.611304
siesta: Ena     =       157.779754
siesta: Ekin    =      6187.599848
siesta: Enl     =     -3804.909443
siesta: Eso     =         0.000000
siesta: Eldau   =         0.000000
siesta: DEna    =        25.050756
siesta: DUscf   =         1.475982
siesta: DUext   =         0.000000
siesta: Exc     =     -3269.594838
siesta: eta*DQ  =         0.000000
siesta: Emadel  =         0.000000
siesta: Emeta   =         0.000000
siesta: Emolmec =         0.000000
siesta: Ekinion =         0.000000
siesta: Eharris =     -6398.209233
siesta: Etot    =     -6398.209245
siesta: FreeEng =     -6398.224554

siesta: Final energy (eV):
siesta:  Band Struct. =    -487.654346
siesta:       Kinetic =    6187.599848
siesta:       Hartree =     696.528564
siesta:       Eldau   =       0.000000
siesta:       Eso     =       0.000000
siesta:    Ext. field =       0.000000
siesta:   Exch.-corr. =   -3269.594838
siesta:  Ion-electron =   -6557.341101
siesta:       Ion-ion =   -3455.401719
siesta:       Ekinion =       0.000000
siesta:         Total =   -6398.209245
siesta:         Fermi =      -5.405992

siesta: Stress tensor (static) (eV/Ang**3):
siesta:     0.055946    0.000277    0.000040
siesta:     0.000277    0.055946    0.000040
siesta:     0.000040    0.000040    0.057313

siesta: Cell volume =         94.559612 Ang**3

siesta: Pressure (static):
siesta:                Solid            Molecule  Units
siesta:          -0.00061429         -0.00061429  Ry/Bohr**3
siesta:          -0.05640173         -0.05640173  eV/Ang**3
siesta:         -90.36651671        -90.36651671  kBar
(Free)E+ p_basis*V_orbitals  =       -6393.440337
(Free)Eharris+ p_basis*V_orbitals  =       -6393.440326

siesta: Total spin polarization (Qup-Qdown) =   18.270912
>> End of run:   8-AUG-2017  11:41:25
